<LesHouchesEvents version="3.0">
<!--
file generated with POWHEG-BOX-V2
Input file powheg.input contained:
numevts 1000000  ! number of events to be generated
ih1   1          ! hadron 1 (1 for protons, -1 for antiprotons)
ih2   1          ! hadron 2 (1 for protons, -1 for antiprotons)
ebeam1 6500d0    ! energy of beam 1
ebeam2 6500d0    ! energy of beam 2

#! 303400 = NNPDF31_nlo_as_0118
lhans1 303400    ! Pdf set for hadron 1 (LHA numbering)
lhans2 303400    ! pdf set for hadron 2 (LHA numbering)

! for not equal pdf sets; make sure from the grid what qcdlambda should be
! QCDLambda5 0.22616191135470262

! Parameters to allow or not the use of stored data
use-old-grid    1 ! if 1 use old grid if file pwggrids.dat is present (<> 1 regenerate)
use-old-ubound  1 ! if 1 use norm of upper bounding function stored in pwgubound.dat, if present; <>

ncall1 500000  ! number of calls for initializing the integration grid
itmx1    5     ! number of iterations for initializing the integration grid
ncall2 500000  ! number of calls for computing the integral and finding upper bound
itmx2    5     ! number of iterations for computing the integral and finding upper bound
foldcsi   2    ! number of folds on csi integration
foldy     5    ! number of folds on  y  integration
foldphi   1    ! number of folds on phi integration
nubound 500000 ! number of bbarra calls to setup norm of upper bounding function
icsimax  1     ! <= 100, number of csi subdivision when computing the upper bounds
iymax    5     ! <= 100, number of y subdivision when computing the upper bounds
xupbound 2d0   ! increase upper bound for radiation generation

bornktmin 50
bornsuppfact 4000

! optional production parameters
! (defaults defined in init_couplings.f)
alphaem_inv  137.0359895  ! 1/alphaem

! OTHER OPTIONAL PARAMETERS

renscfact  1.0d0   ! (default 1d0) ren scale factor: muren  = muref * renscfact
facscfact  1.0d0   ! (default 1d0) fac scale factor: mufact = muref * facscfact

doublefsr  1	  ! redefinition of emitter and emitted
iupperfsr  1	  ! version of upperbounding, 2 ill-defined for massless process

manyseeds  1
parallelstage 4
xgriditeration 1

! only for more statistics;
enhancedradfac 50 ! if > 0 then the splitting kernel used for photon radiation is
lhrwgt_id 'central'
lhrwgt_descr 'Central weight, photon splitting enhanced by factor 50'
End of powheg.input content
PDF package: lha
 Random number generator initialized with:         6024             0             0
-->
<header>
<initrwgt>
<weight id='central'> Central weight, photon splitting enhanced by factor 50 </weight>
<weight id='scales0.50.5'> MUR0.5 MUF0.5 </weight>
<weight id='scales0.51.0'> MUR0.5 MUF1.0 </weight>
<weight id='scales1.00.5'> MUR1.0 MUF0.5 </weight>
<weight id='scales1.02.0'> MUR1.0 MUF2.0 </weight>
<weight id='scales2.01.0'> MUR2.0 MUF1.0 </weight>
<weight id='scales2.02.0'> MUR2.0 MUF2.0 </weight>
</initrwgt>
</header>
<init>
     2212     2212  6.50000E+03  6.50000E+03     -1     -1     -1     -1     -4      1
 -1.00000E+00 -1.00000E+00  1.00000E+00  10001
</init>
<event>
      5  10001  1.39407E+01  5.21496E+01  7.29735E-03  1.38040E-01
       2    -1     0     0   512     0  0.000000000E+00  0.000000000E+00  2.943277388E+03  2.943277388E+03  0.000000000E+00  0.00000E+00  9.000E+00
       2    -1     0     0   511     0  0.000000000E+00  0.000000000E+00 -2.601462566E+03  2.601462566E+03  0.000000000E+00  0.00000E+00  9.000E+00
       2     1     1     2   511     0 -1.395848258E+03  1.432822621E+02  1.508918858E+03  2.060523789E+03  3.051757812E-05  0.00000E+00  9.000E+00
       2     1     1     2   512     0  1.352546699E+03 -1.723435712E+02 -2.125045055E+03  2.524856702E+03  0.000000000E+00  0.00000E+00  9.000E+00
      22     1     1     2     0     0  4.330155965E+01  2.906130913E+01  9.579410192E+02  9.593594639E+02  0.000000000E+00  0.00000E+00  9.000E+00
#rwgt            1          97   8.5325714239864112E-003        6024          92           0
<rwgt>
<wgt id='central'>  0.139406625E+02 </wgt>
<wgt id='sudakovwgt'>  0.609675655E-01 </wgt>
<wgt id='scales0.50.5'>  0.184574416E+02 </wgt>
<wgt id='scales0.51.0'>  0.162352848E+02 </wgt>
<wgt id='scales1.00.5'>  0.158487922E+02 </wgt>
<wgt id='scales1.02.0'>  0.123660926E+02 </wgt>
<wgt id='scales2.01.0'>  0.121045795E+02 </wgt>
<wgt id='scales2.02.0'>  0.107373626E+02 </wgt>
</rwgt>
<scales uborns=' 0.138317661E+04'> </scales>
</event>
<event>
      5  10001  4.44605E+05  1.35824E+01  7.29735E-03  1.81544E-01
       2    -1     0     0   511     0  0.000000000E+00  0.000000000E+00  4.729218273E+02  4.729218273E+02  0.000000000E+00  0.00000E+00  9.000E+00
      21    -1     0     0   513   514  0.000000000E+00  0.000000000E+00 -9.205066155E+02  9.205066155E+02  0.000000000E+00  0.00000E+00  9.000E+00
       2     1     1     2   513     0  2.139601237E+02  1.070226085E+02 -2.833633967E+02  3.708471219E+02  7.629394531E-06  0.00000E+00  9.000E+00
      21     1     1     2   511   514 -2.007828002E+02 -1.037302294E+02 -5.717667704E+02  6.148096722E+02  7.629394531E-06  0.00000E+00  9.000E+00
      22     1     1     2     0     0 -1.317732353E+01 -3.292379043E+00  4.075453789E+02  4.077716487E+02  1.206313194E-05  0.00000E+00  9.000E+00
#rwgt            1         182   6.8533519407880036E-004        6024       28801           0
<rwgt>
<wgt id='central'>  0.444604960E+06 </wgt>
<wgt id='sudakovwgt'>  0.318845962E-01 </wgt>
<wgt id='scales0.50.5'>  0.566981309E+06 </wgt>
<wgt id='scales0.51.0'>  0.538470689E+06 </wgt>
<wgt id='scales1.00.5'>  0.468145677E+06 </wgt>
<wgt id='scales1.02.0'>  0.422402181E+06 </wgt>
<wgt id='scales2.01.0'>  0.373569053E+06 </wgt>
<wgt id='scales2.02.0'>  0.354913649E+06 </wgt>
</rwgt>
<scales uborns=' 0.232524499E+03'> </scales>
</event>
<event>
      5  10001  2.63946E+01  1.76270E+02  7.29735E-03  1.13682E-01
       2    -1     0     0   513     0  0.000000000E+00  0.000000000E+00  2.043873155E+03  2.043873155E+03  0.000000000E+00  0.00000E+00  9.000E+00
       1    -1     0     0   512     0  0.000000000E+00  0.000000000E+00 -1.835937015E+03  1.835937015E+03  0.000000000E+00  0.00000E+00  9.000E+00
       2     1     1     2   512     0  8.084958533E+02  6.419538516E+02  1.129363733E+03  1.530108732E+03  3.051757812E-05  0.00000E+00  9.000E+00
       1     1     1     2   513     0 -9.479073523E+02 -7.707690413E+02 -1.386150900E+03  1.847708738E+03  2.642899792E-05  0.00000E+00  9.000E+00
      22     1     1     2     0     0  1.394114990E+02  1.288151897E+02  4.647233071E+02  5.019927005E+02  5.394796609E-06  0.00000E+00  9.000E+00
#rwgt            1          92   4.5488098407383088E-003        6024       31119           0
<rwgt>
<wgt id='central'>  0.263946137E+02 </wgt>
<wgt id='sudakovwgt'>  0.268088693E-02 </wgt>
<wgt id='scales0.50.5'>  0.348391212E+02 </wgt>
<wgt id='scales0.51.0'>  0.308028746E+02 </wgt>
<wgt id='scales1.00.5'>  0.298532095E+02 </wgt>
<wgt id='scales1.02.0'>  0.235241183E+02 </wgt>
<wgt id='scales2.01.0'>  0.228775604E+02 </wgt>
<wgt id='scales2.02.0'>  0.203895659E+02 </wgt>
</rwgt>
<scales uborns=' 0.122956587E+04'> </scales>
</event>
<event>
      5  10001  5.97251E+02  6.26794E+01  7.29735E-03  1.33697E-01
       1    -1     0     0   511     0  0.000000000E+00  0.000000000E+00  1.343996160E+03  1.343996160E+03  0.000000000E+00  0.00000E+00  9.000E+00
      -2    -1     0     0     0   511  0.000000000E+00  0.000000000E+00 -3.905094186E+02  3.905094186E+02  0.000000000E+00  0.00000E+00  9.000E+00
       1     1     1     2   513     0 -6.400958986E+02 -2.977334311E+02  6.471618138E+02  9.576984748E+02  1.078959322E-05  0.00000E+00  9.000E+00
      -2     1     1     2     0   513  4.740752970E+02  2.479909504E+02  2.717521658E+02  6.000801100E+02  5.394796609E-06  0.00000E+00  9.000E+00
      22     1     1     2     0     0  1.660206016E+02  4.974248063E+01  3.457276186E+01  1.767269940E+02  3.873843386E-06  0.00000E+00  9.000E+00
#rwgt            1         141   1.4302245570533190E-004        6024       36797           0
<rwgt>
<wgt id='central'>  0.597250513E+03 </wgt>
<wgt id='sudakovwgt'>  0.194225388E-02 </wgt>
<wgt id='scales0.50.5'>  0.753687458E+03 </wgt>
<wgt id='scales0.51.0'>  0.704358173E+03 </wgt>
<wgt id='scales1.00.5'>  0.639079101E+03 </wgt>
<wgt id='scales1.02.0'>  0.559898540E+03 </wgt>
<wgt id='scales2.01.0'>  0.513069941E+03 </wgt>
<wgt id='scales2.02.0'>  0.480982219E+03 </wgt>
</rwgt>
<scales uborns=' 0.709747169E+03'> </scales>
</event>
<event>
      4  10001  7.08113E+05  8.94427E-01  7.29735E-03  7.45963E-01
      21    -1     0     0   512   514  0.000000000E+00  0.000000000E+00  3.097350686E+02  3.097350686E+02  0.000000000E+00  0.00000E+00  9.000E+00
       1    -1     0     0   513     0  0.000000000E+00  0.000000000E+00 -7.924221156E+02  7.924221156E+02  0.000000000E+00  0.00000E+00  9.000E+00
       1     1     1     2   512     0 -1.236151667E+02 -1.760532039E+02 -7.377610295E+02  7.684834264E+02  1.078959322E-05  0.00000E+00  9.000E+00
      21     1     1     2   513   514  1.236151667E+02  1.760532039E+02  2.550739825E+02  3.336737577E+02  6.607249480E-06  0.00000E+00  9.000E+00
#rwgt            1         186   6.4369048006053860E-003        6024       39288           0
<rwgt>
<wgt id='central'>  0.708112728E+06 </wgt>
<wgt id='sudakovwgt'>  0.175416357E+01 </wgt>
<wgt id='scales0.50.5'>  0.927166723E+06 </wgt>
<wgt id='scales0.51.0'>  0.859490302E+06 </wgt>
<wgt id='scales1.00.5'>  0.763869945E+06 </wgt>
<wgt id='scales1.02.0'>  0.658202359E+06 </wgt>
<wgt id='scales2.01.0'>  0.593908125E+06 </wgt>
<wgt id='scales2.02.0'>  0.552047101E+06 </wgt>
</rwgt>
<scales uborns=' 0.215117270E+03'> </scales>
</event>
<event>
      4  10001  4.12369E+02  8.94427E-01  7.29735E-03  7.51441E-01
       3    -1     0     0   515     0  0.000000000E+00  0.000000000E+00  8.495825691E+02  8.495825691E+02  0.000000000E+00  0.00000E+00  9.000E+00
      21    -1     0     0   511   512  0.000000000E+00  0.000000000E+00 -7.316350731E+02  7.316350731E+02  0.000000000E+00  0.00000E+00  9.000E+00
       3     1     1     2   511     0 -3.980756803E+02  6.433084528E+02  2.815722511E+02  8.072130730E+02  1.009274029E-05  0.00000E+00  9.000E+00
      21     1     1     2   515   512  3.980756803E+02 -6.433084528E+02 -1.636247551E+02  7.740045692E+02  9.910874219E-06  0.00000E+00  9.000E+00
#rwgt            1         183   3.6705138435947076E-004        6024       40909           0
<rwgt>
<wgt id='central'>  0.412369426E+03 </wgt>
<wgt id='sudakovwgt'>  0.255865382E+01 </wgt>
<wgt id='scales0.50.5'>  0.536515536E+03 </wgt>
<wgt id='scales0.51.0'>  0.485691756E+03 </wgt>
<wgt id='scales1.00.5'>  0.455520137E+03 </wgt>
<wgt id='scales1.02.0'>  0.375240948E+03 </wgt>
<wgt id='scales2.01.0'>  0.354634391E+03 </wgt>
<wgt id='scales2.02.0'>  0.322704532E+03 </wgt>
</rwgt>
<scales uborns=' 0.756511740E+03'> </scales>
</event>
<event>
      4  10001  2.24306E+03  8.94427E-01  7.29735E-03  7.49994E-01
      21    -1     0     0   513   511  0.000000000E+00  0.000000000E+00  9.515475516E+02  9.515475516E+02  0.000000000E+00  0.00000E+00  9.000E+00
       1    -1     0     0   514     0  0.000000000E+00  0.000000000E+00 -4.966516439E+02  4.966516439E+02  0.000000000E+00  0.00000E+00  9.000E+00
       1     1     1     2   513     0 -4.018619389E+02  3.987273916E+02 -1.833588048E+02  5.950605029E+02  4.672030912E-06  0.00000E+00  9.000E+00
      21     1     1     2   514   511  4.018619389E+02 -3.987273916E+02  6.382547125E+02  8.531386926E+02  7.629394531E-06  0.00000E+00  9.000E+00
#rwgt            1         186   1.9073721554126930E-003        6024       43086           0
<rwgt>
<wgt id='central'>  0.224306097E+04 </wgt>
<wgt id='sudakovwgt'>  0.232468940E+01 </wgt>
<wgt id='scales0.50.5'>  0.293899782E+04 </wgt>
<wgt id='scales0.51.0'>  0.265793645E+04 </wgt>
<wgt id='scales1.00.5'>  0.248025059E+04 </wgt>
<wgt id='scales1.02.0'>  0.204119845E+04 </wgt>
<wgt id='scales2.01.0'>  0.191919196E+04 </wgt>
<wgt id='scales2.02.0'>  0.174647654E+04 </wgt>
</rwgt>
<scales uborns=' 0.566106484E+03'> </scales>
</event>
<event>
      5  10001  1.42812E+02  4.36857E+01  7.29735E-03  1.42505E-01
       4    -1     0     0   513     0  0.000000000E+00  0.000000000E+00  1.014037830E+03  1.014037830E+03  0.000000000E+00  0.00000E+00  9.000E+00
       2    -1     0     0   512     0  0.000000000E+00  0.000000000E+00 -8.393584865E+02  8.393584865E+02  0.000000000E+00  0.00000E+00  9.000E+00
       4     1     1     2   512     0 -4.405344655E+02 -7.953700245E+02 -6.702645868E+01  9.116888929E+02  1.637989429E-05  0.00000E+00  9.000E+00
       2     1     1     2   513     0  1.921376484E+02  3.858500013E+02  1.058713385E+02  4.438533990E+02  1.348699152E-06  0.00000E+00  9.000E+00
      22     1     1     2     0     0  2.483968171E+02  4.095200232E+02  1.358344636E+02  4.978540244E+02  1.128402669E-05  0.00000E+00  9.000E+00
#rwgt            1          99   2.2747421503371558E-005        6024       44613           0
<rwgt>
<wgt id='central'>  0.142812288E+03 </wgt>
<wgt id='sudakovwgt'>  0.326055969E-01 </wgt>
<wgt id='scales0.50.5'>  0.171269792E+03 </wgt>
<wgt id='scales0.51.0'>  0.167596645E+03 </wgt>
<wgt id='scales1.00.5'>  0.145941952E+03 </wgt>
<wgt id='scales1.02.0'>  0.139212348E+03 </wgt>
<wgt id='scales2.01.0'>  0.123195255E+03 </wgt>
<wgt id='scales2.02.0'>  0.120090054E+03 </wgt>
</rwgt>
<scales uborns=' 0.909677818E+03'> </scales>
</event>
<event>
      5  10001  5.76884E+02  5.84990E+00  7.29735E-03  2.27194E-01
      21    -1     0     0   511   512  0.000000000E+00  0.000000000E+00  2.497726275E+03  2.497726275E+03  0.000000000E+00  0.00000E+00  9.000E+00
       2    -1     0     0   514     0  0.000000000E+00  0.000000000E+00 -1.802133692E+03  1.802133692E+03  0.000000000E+00  0.00000E+00  9.000E+00
       2     1     1     2   511     0  6.993849413E+02  1.286155353E+02 -1.413493640E+03  1.582291226E+03  1.525878906E-05  0.00000E+00  9.000E+00
      21     1     1     2   514   512 -7.048726897E+02 -1.306418489E+02  2.360055694E+03  2.466531102E+03  5.285799584E-05  0.00000E+00  9.000E+00
      22     1     1     2     0     0  5.487748433E+00  2.026313575E+00 -2.509694704E+02  2.510376394E+02  3.814697266E-06  0.00000E+00  9.000E+00
#rwgt            1         187   5.9257183048124148E-003        6024       48877           0
<rwgt>
<wgt id='central'>  0.576884073E+03 </wgt>
<wgt id='sudakovwgt'>  0.595417038E-01 </wgt>
<wgt id='scales0.50.5'>  0.828859343E+03 </wgt>
<wgt id='scales0.51.0'>  0.680255783E+03 </wgt>
<wgt id='scales1.00.5'>  0.702905738E+03 </wgt>
<wgt id='scales1.02.0'>  0.481017521E+03 </wgt>
<wgt id='scales2.01.0'>  0.495624655E+03 </wgt>
<wgt id='scales2.02.0'>  0.413261839E+03 </wgt>
</rwgt>
<scales uborns=' 0.713993962E+03'> </scales>
</event>
<event>
      5  10001  1.58102E+02  1.11014E+01  7.29735E-03  1.90654E-01
      21    -1     0     0   513   515  0.000000000E+00  0.000000000E+00  5.290392085E+02  5.290392085E+02  0.000000000E+00  0.00000E+00  9.000E+00
       1    -1     0     0   511     0  0.000000000E+00  0.000000000E+00 -2.110251359E+03  2.110251359E+03  0.000000000E+00  0.00000E+00  9.000E+00
       1     1     1     2   513     0  6.408003679E+02 -6.268899174E+02 -1.444523335E+03  1.700077570E+03  2.642899792E-05  0.00000E+00  9.000E+00
      21     1     1     2   511   515 -6.434128738E+02  6.161003315E+02 -9.476707292E+01  8.958462718E+02  1.335144043E-05  0.00000E+00  9.000E+00
      22     1     1     2     0     0  2.612505885E+00  1.078958586E+01 -4.192174223E+01  4.336672482E+01  4.768371582E-07  0.00000E+00  9.000E+00
#rwgt            1         186   4.4565163084164718E-003        6024       51387           0
<rwgt>
<wgt id='central'>  0.158102358E+03 </wgt>
<wgt id='sudakovwgt'>  0.241956872E-01 </wgt>
<wgt id='scales0.50.5'>  0.211517532E+03 </wgt>
<wgt id='scales0.51.0'>  0.185603833E+03 </wgt>
<wgt id='scales1.00.5'>  0.180175939E+03 </wgt>
<wgt id='scales1.02.0'>  0.139883869E+03 </wgt>
<wgt id='scales2.01.0'>  0.136345292E+03 </wgt>
<wgt id='scales2.02.0'>  0.120634191E+03 </wgt>
</rwgt>
<scales uborns=' 0.893616985E+03'> </scales>
</event>
<event>
      5  10001  1.98419E+00  1.32843E+03  7.29735E-03  8.81251E-02
       2    -1     0     0   514     0  0.000000000E+00  0.000000000E+00  2.014820704E+03  2.014820704E+03  0.000000000E+00  0.00000E+00  9.000E+00
      21    -1     0     0   512   513  0.000000000E+00  0.000000000E+00 -2.403840551E+03  2.403840551E+03  0.000000000E+00  0.00000E+00  9.000E+00
       2     1     1     2   512     0  8.530698452E+01  1.073724614E+03  8.975112481E+01  1.080840919E+03  2.397500055E-05  0.00000E+00  9.000E+00
      21     1     1     2   514   513  8.871836343E+02 -1.646779352E+03 -9.696373644E+02  2.106934658E+03  0.000000000E+00  0.00000E+00  9.000E+00
      22     1     1     2     0     0 -9.724906188E+02  5.730547385E+02  4.908663929E+02  1.230885678E+03  3.099074709E-05  0.00000E+00  9.000E+00
#rwgt            1         182   2.3877948171297137E-003        6024       51922           0
<rwgt>
<wgt id='central'>  0.198419132E+01 </wgt>
<wgt id='sudakovwgt'>  0.906124370E-01 </wgt>
<wgt id='scales0.50.5'>  0.275419438E+01 </wgt>
<wgt id='scales0.51.0'>  0.229610810E+01 </wgt>
<wgt id='scales1.00.5'>  0.238004689E+01 </wgt>
<wgt id='scales1.02.0'>  0.167625396E+01 </wgt>
<wgt id='scales2.01.0'>  0.173230734E+01 </wgt>
<wgt id='scales2.02.0'>  0.146346218E+01 </wgt>
</rwgt>
<scales uborns=' 0.202844684E+04'> </scales>
</event>
<event>
      5  10001  5.70386E-01  3.01913E+01  7.29735E-03  1.52848E-01
       2    -1     0     0   512     0  0.000000000E+00  0.000000000E+00  3.134800667E+03  3.134800667E+03  0.000000000E+00  0.00000E+00  9.000E+00
       1    -1     0     0   511     0  0.000000000E+00  0.000000000E+00 -2.646174434E+03  2.646174434E+03  0.000000000E+00  0.00000E+00  9.000E+00
       2     1     1     2   511     0 -1.259071279E+03  2.184365008E+03  1.193422740E+03  2.789438798E+03  3.737624730E-05  0.00000E+00  9.000E+00
       1     1     1     2   512     0  1.345268701E+03 -2.317554302E+03 -8.120428084E+02  2.800039168E+03  5.909703592E-05  0.00000E+00  9.000E+00
      22     1     1     2     0     0 -8.619742185E+01  1.331892942E+02  1.072463012E+02  1.914971351E+02  2.336015456E-06  0.00000E+00  9.000E+00
#rwgt            1          92   1.7844579612227563E-002        6024       52544           0
<rwgt>
<wgt id='central'>  0.570386421E+00 </wgt>
<wgt id='sudakovwgt'>  0.181107851E-02 </wgt>
<wgt id='scales0.50.5'>  0.772556487E+00 </wgt>
<wgt id='scales0.51.0'>  0.657214985E+00 </wgt>
<wgt id='scales1.00.5'>  0.670488979E+00 </wgt>
<wgt id='scales1.02.0'>  0.490226405E+00 </wgt>
<wgt id='scales2.01.0'>  0.499834846E+00 </wgt>
<wgt id='scales2.02.0'>  0.429590207E+00 </wgt>
</rwgt>
<scales uborns=' 0.268078788E+04'> </scales>
</event>
<event>
      5  10001  8.13717E+05  9.60735E+00  7.29735E-03  1.97789E-01
      -3    -1     0     0     0   513  0.000000000E+00  0.000000000E+00  4.198922356E+02  4.198922356E+02  0.000000000E+00  0.00000E+00  9.000E+00
      21    -1     0     0   514   512  0.000000000E+00  0.000000000E+00 -1.714934775E+02  1.714934775E+02  0.000000000E+00  0.00000E+00  9.000E+00
      -3     1     1     2     0   512 -1.363180546E+02 -1.537046213E+02 -4.864539126E+01  2.111257841E+02  2.431401974E-06  0.00000E+00  9.000E+00
      21     1     1     2   514   513  1.435018885E+02  1.600837861E+02  2.391658218E+02  3.215896467E+02  6.031565972E-06  0.00000E+00  9.000E+00
      22     1     1     2     0     0 -7.183833914E+00 -6.379164804E+00  5.787832763E+01  5.867028228E+01  6.743495762E-07  0.00000E+00  9.000E+00
#rwgt            1         193   9.9868802251780144E-005        6024       72103           0
<rwgt>
<wgt id='central'>  0.813717149E+06 </wgt>
<wgt id='sudakovwgt'>  0.215785725E-01 </wgt>
<wgt id='scales0.50.5'>  0.998153321E+06 </wgt>
<wgt id='scales0.51.0'>  0.988325570E+06 </wgt>
<wgt id='scales1.00.5'>  0.821808472E+06 </wgt>
<wgt id='scales1.02.0'>  0.799857833E+06 </wgt>
<wgt id='scales2.01.0'>  0.682109374E+06 </wgt>
<wgt id='scales2.02.0'>  0.670491738E+06 </wgt>
</rwgt>
<scales uborns=' 0.210176908E+03'> </scales>
</event>
<event>
      5  10001  6.19012E+01  1.07494E+01  7.29735E-03  1.92197E-01
      21    -1     0     0   511   515  0.000000000E+00  0.000000000E+00  9.544232294E+02  9.544232294E+02  0.000000000E+00  0.00000E+00  9.000E+00
       3    -1     0     0   513     0  0.000000000E+00  0.000000000E+00 -1.288232692E+03  1.288232692E+03  0.000000000E+00  0.00000E+00  9.000E+00
       3     1     1     2   511     0 -7.049197260E+02 -7.708630022E+02 -4.978187074E+02  1.157136575E+03  2.697398305E-05  0.00000E+00  9.000E+00
      21     1     1     2   513   515  7.110653733E+02  7.762806008E+02  1.795750574E+02  1.067929182E+03  2.566075143E-05  0.00000E+00  9.000E+00
      22     1     1     2     0     0 -6.145647305E+00 -5.417598604E+00 -1.556581215E+01  1.759016382E+01  4.129530925E-07  0.00000E+00  9.000E+00
#rwgt            1         188   2.9629091573385891E-004        6024       72205           0
<rwgt>
<wgt id='central'>  0.619011542E+02 </wgt>
<wgt id='sudakovwgt'>  0.374007145E-01 </wgt>
<wgt id='scales0.50.5'>  0.820023582E+02 </wgt>
<wgt id='scales0.51.0'>  0.724417894E+02 </wgt>
<wgt id='scales1.00.5'>  0.700706653E+02 </wgt>
<wgt id='scales1.02.0'>  0.551188347E+02 </wgt>
<wgt id='scales2.01.0'>  0.535251687E+02 </wgt>
<wgt id='scales2.02.0'>  0.476605449E+02 </wgt>
</rwgt>
<scales uborns=' 0.105447972E+04'> </scales>
</event>
<event>
      5  10001  3.26620E+01  6.41216E+00  7.29735E-03  2.21082E-01
      21    -1     0     0   514   513  0.000000000E+00  0.000000000E+00  6.503074630E+02  6.503074630E+02  0.000000000E+00  0.00000E+00  9.000E+00
      -5    -1     0     0     0   512  0.000000000E+00  0.000000000E+00 -2.155193403E+03  2.155193403E+03  0.000000000E+00  0.00000E+00  9.000E+00
      -5     1     1     2     0   513 -4.871155791E+02  1.071772622E+03 -8.001927978E+02  1.423476960E+03  5.285799584E-05  0.00000E+00  9.000E+00
      21     1     1     2   514   512  4.873203974E+02 -1.076240183E+03 -6.934115486E+02  1.369888199E+03  3.325575976E-05  0.00000E+00  9.000E+00
      22     1     1     2     0     0 -2.048182807E-01  4.467560835E+00 -1.128159389E+01  1.213570810E+01  1.685873940E-07  0.00000E+00  9.000E+00
#rwgt            1         200   2.2190296442130862E-005        6024       72818           0
<rwgt>
<wgt id='central'>  0.326620433E+02 </wgt>
<wgt id='sudakovwgt'>  0.302643127E-01 </wgt>
<wgt id='scales0.50.5'>  0.415514600E+02 </wgt>
<wgt id='scales0.51.0'>  0.381435296E+02 </wgt>
<wgt id='scales1.00.5'>  0.355801836E+02 </wgt>
<wgt id='scales1.02.0'>  0.299501964E+02 </wgt>
<wgt id='scales2.01.0'>  0.282930339E+02 </wgt>
<wgt id='scales2.02.0'>  0.259439692E+02 </wgt>
</rwgt>
<scales uborns=' 0.118284647E+04'> </scales>
</event>
<event>
      5  10001  1.38581E+02  8.61227E+01  7.29735E-03  1.26818E-01
       2    -1     0     0   511     0  0.000000000E+00  0.000000000E+00  2.114343526E+03  2.114343526E+03  0.000000000E+00  0.00000E+00  9.000E+00
       2    -1     0     0   513     0  0.000000000E+00  0.000000000E+00 -1.662647515E+03  1.662647515E+03  0.000000000E+00  0.00000E+00  9.000E+00
       2     1     1     2   511     0 -7.636857948E+02  4.284498275E+02 -4.215264352E+02  9.718383525E+02  2.157918644E-05  0.00000E+00  9.000E+00
       2     1     1     2   513     0  8.495567497E+02 -4.350304413E+02  1.713005238E+03  1.960965350E+03  0.000000000E+00  0.00000E+00  9.000E+00
      22     1     1     2     0     0 -8.587095491E+01  6.580613842E+00 -8.397827916E+02  8.441873384E+02  1.868812365E-05  0.00000E+00  9.000E+00
#rwgt            1          97   2.8818271248170478E-003        6024       73246           0
<rwgt>
<wgt id='central'>  0.138580936E+03 </wgt>
<wgt id='sudakovwgt'>  0.416291110E-01 </wgt>
<wgt id='scales0.50.5'>  0.177110894E+03 </wgt>
<wgt id='scales0.51.0'>  0.162614900E+03 </wgt>
<wgt id='scales1.00.5'>  0.150934537E+03 </wgt>
<wgt id='scales1.02.0'>  0.127900733E+03 </wgt>
<wgt id='scales2.01.0'>  0.119555710E+03 </wgt>
<wgt id='scales2.02.0'>  0.110341699E+03 </wgt>
</rwgt>
<scales uborns=' 0.914487575E+03'> </scales>
</event>
<event>
      5  10001  3.95118E+06  1.07367E+01  7.29735E-03  1.92254E-01
       2    -1     0     0   512     0  0.000000000E+00  0.000000000E+00  2.484853139E+02  2.484853139E+02  0.000000000E+00  0.00000E+00  9.000E+00
      -1    -1     0     0     0   512  0.000000000E+00  0.000000000E+00 -4.818014547E+02  4.818014547E+02  0.000000000E+00  0.00000E+00  9.000E+00
       2     1     1     2   513     0 -6.857858157E+01 -1.448293437E+02  1.372412645E+02  2.109827607E+02  6.031565972E-06  0.00000E+00  9.000E+00
      -1     1     1     2     0   513  7.901469639E+01  1.423063876E+02 -4.295430424E+02  4.593491651E+02  7.629394531E-06  0.00000E+00  9.000E+00
      22     1     1     2     0     0 -1.043611481E+01  2.522956082E+00  5.898563707E+01  5.995484285E+01  6.743495762E-07  0.00000E+00  9.000E+00
#rwgt            1         145   9.3176202028144529E-005        6024       88931           0
<rwgt>
<wgt id='central'>  0.395118385E+07 </wgt>
<wgt id='sudakovwgt'>  0.307260904E-01 </wgt>
<wgt id='scales0.50.5'>  0.488547801E+07 </wgt>
<wgt id='scales0.51.0'>  0.483700960E+07 </wgt>
<wgt id='scales1.00.5'>  0.399077211E+07 </wgt>
<wgt id='scales1.02.0'>  0.389823485E+07 </wgt>
<wgt id='scales2.01.0'>  0.329091310E+07 </wgt>
<wgt id='scales2.02.0'>  0.324681541E+07 </wgt>
</rwgt>
<scales uborns=' 0.161422485E+03'> </scales>
</event>
<event>
      4  10001  3.46988E+03  8.94427E-01  7.29735E-03  7.51624E-01
      -1    -1     0     0     0   511  0.000000000E+00  0.000000000E+00  3.871418061E+02  3.871418061E+02  0.000000000E+00  0.00000E+00  9.000E+00
      21    -1     0     0   513   512  0.000000000E+00  0.000000000E+00 -7.914547984E+02  7.914547984E+02  0.000000000E+00  0.00000E+00  9.000E+00
      -1     1     1     2     0   512 -3.333505961E+02  4.064842918E+02 -1.759885607E+01  5.259865199E+02  8.592997213E-06  0.00000E+00  9.000E+00
      21     1     1     2   513   511  3.333505961E+02 -4.064842918E+02 -3.867141362E+02  6.526100846E+02  5.394796609E-06  0.00000E+00  9.000E+00
#rwgt            1         191   6.8284323275234521E-004        6024      135275           0
<rwgt>
<wgt id='central'>  0.346987850E+04 </wgt>
<wgt id='sudakovwgt'>  0.208053513E+01 </wgt>
<wgt id='scales0.50.5'>  0.451398346E+04 </wgt>
<wgt id='scales0.51.0'>  0.411833908E+04 </wgt>
<wgt id='scales1.00.5'>  0.380322762E+04 </wgt>
<wgt id='scales1.02.0'>  0.318105118E+04 </wgt>
<wgt id='scales2.01.0'>  0.296483604E+04 </wgt>
<wgt id='scales2.02.0'>  0.271804650E+04 </wgt>
</rwgt>
<scales uborns=' 0.525692020E+03'> </scales>
</event>
<event>
      5  10001  1.27297E+03  2.08230E+02  7.29735E-03  1.11014E-01
       1    -1     0     0   515     0  0.000000000E+00  0.000000000E+00  4.392307689E+02  4.392307689E+02  0.000000000E+00  0.00000E+00  9.000E+00
      21    -1     0     0   514   512  0.000000000E+00  0.000000000E+00 -1.950280526E+03  1.950280526E+03  0.000000000E+00  0.00000E+00  9.000E+00
      22     1     1     2     0     0  1.194856884E+02  9.692182695E+01  2.558957441E+01  1.559663316E+02  3.053247565E-06  0.00000E+00  9.000E+00
      21     1     1     2   515   512 -3.302331884E+02 -5.258911826E+02 -1.632028198E+03  1.746176261E+03  0.000000000E+00  0.00000E+00  9.000E+00
       1     1     1     2   514     0  2.107475001E+02  4.289693557E+02  9.538886610E+01  4.873687030E+02  5.722045898E-06  0.00000E+00  9.000E+00
#rwgt            1         181   7.2248884032721328E-004        6024      136555           0
<rwgt>
<wgt id='central'>  0.127296535E+04 </wgt>
<wgt id='sudakovwgt'>  0.314946391E-01 </wgt>
<wgt id='scales0.50.5'>  0.172853518E+04 </wgt>
<wgt id='scales0.51.0'>  0.150530658E+04 </wgt>
<wgt id='scales1.00.5'>  0.146174438E+04 </wgt>
<wgt id='scales1.02.0'>  0.111954639E+04 </wgt>
<wgt id='scales2.01.0'>  0.109106484E+04 </wgt>
<wgt id='scales2.02.0'>  0.959565192E+03 </wgt>
</rwgt>
<scales uborns=' 0.623459239E+03'> </scales>
</event>
<event>
      5  10001  6.99081E+01  2.14067E+01  7.29735E-03  1.63969E-01
       2    -1     0     0   512     0  0.000000000E+00  0.000000000E+00  3.441470748E+03  3.441470748E+03  0.000000000E+00  0.00000E+00  9.000E+00
      21    -1     0     0   511   513  0.000000000E+00  0.000000000E+00 -4.274759549E+02  4.274759549E+02  0.000000000E+00  0.00000E+00  9.000E+00
      22     1     1     2     0     0 -1.695095138E+01  5.182209245E+01  1.306647495E+02  1.415843945E+02  1.907348633E-06  0.00000E+00  9.000E+00
      21     1     1     2   512   513  3.123964653E+02 -9.834644148E+02  4.903223295E+02  1.142457786E+03  2.412626389E-05  0.00000E+00  9.000E+00
       2     1     1     2   511     0 -2.954455139E+02  9.316423224E+02  2.393007714E+03  2.584904522E+03  0.000000000E+00  0.00000E+00  9.000E+00
#rwgt            1         182   1.3306990045704029E-002        6024      136816           0
<rwgt>
<wgt id='central'>  0.699080881E+02 </wgt>
<wgt id='sudakovwgt'>  0.744602740E-03 </wgt>
<wgt id='scales0.50.5'>  0.945212420E+02 </wgt>
<wgt id='scales0.51.0'>  0.818450349E+02 </wgt>
<wgt id='scales1.00.5'>  0.807355076E+02 </wgt>
<wgt id='scales1.02.0'>  0.610948408E+02 </wgt>
<wgt id='scales2.01.0'>  0.604279209E+02 </wgt>
<wgt id='scales2.02.0'>  0.528098204E+02 </wgt>
</rwgt>
<scales uborns=' 0.103189290E+04'> </scales>
</event>
<event>
      5  10001  1.25267E+02  2.42587E+02  7.29735E-03  1.08679E-01
       2    -1     0     0   511     0  0.000000000E+00  0.000000000E+00  5.308007352E+02  5.308007352E+02  0.000000000E+00  0.00000E+00  9.000E+00
       2    -1     0     0   514     0  0.000000000E+00  0.000000000E+00 -2.237710239E+03  2.237710239E+03  0.000000000E+00  0.00000E+00  9.000E+00
       2     1     1     2   511     0 -7.238632935E+02  5.825640388E+02 -1.332582756E+02  9.386781637E+02  8.740569487E-06  0.00000E+00  9.000E+00
      22     1     1     2     0     0  1.105734261E+02 -6.821169189E+01 -1.694937856E+02  2.135590336E+02  0.000000000E+00  0.00000E+00  9.000E+00
       2     1     1     2   514     0  6.132898674E+02 -5.143523469E+02 -1.404157443E+03  1.616273777E+03  3.411968960E-05  0.00000E+00  9.000E+00
#rwgt            1          97   1.2636373544637040E-003        6024      140312           0
<rwgt>
<wgt id='central'>  0.125266840E+03 </wgt>
<wgt id='sudakovwgt'>  0.901680866E-03 </wgt>
<wgt id='scales0.50.5'>  0.158758200E+03 </wgt>
<wgt id='scales0.51.0'>  0.146941982E+03 </wgt>
<wgt id='scales1.00.5'>  0.135340242E+03 </wgt>
<wgt id='scales1.02.0'>  0.116474884E+03 </wgt>
<wgt id='scales2.01.0'>  0.108100715E+03 </wgt>
<wgt id='scales2.02.0'>  0.100513449E+03 </wgt>
</rwgt>
<scales uborns=' 0.930846424E+03'> </scales>
</event>
<event>
      4  10001  1.90125E+04  8.94427E-01  7.29735E-03  7.39067E-01
       1    -1     0     0   513     0  0.000000000E+00  0.000000000E+00  2.275207423E+03  2.275207423E+03  0.000000000E+00  0.00000E+00  9.000E+00
      21    -1     0     0   512   511  0.000000000E+00  0.000000000E+00 -1.338152661E+02  1.338152661E+02  0.000000000E+00  0.00000E+00  9.000E+00
       1     1     1     2   512     0 -2.624007438E+02  2.945125700E+02  1.912953530E+03  1.953198150E+03  0.000000000E+00  0.00000E+00  9.000E+00
      21     1     1     2   513   511  2.624007438E+02 -2.945125700E+02  2.284386262E+02  4.558245388E+02  2.697398305E-06  0.00000E+00  9.000E+00
#rwgt            1         181   5.1628740080441708E-003        6024      145692           0
<rwgt>
<wgt id='central'>  0.190125254E+05 </wgt>
<wgt id='sudakovwgt'>  0.212501804E+01 </wgt>
<wgt id='scales0.50.5'>  0.250254570E+05 </wgt>
<wgt id='scales0.51.0'>  0.227149913E+05 </wgt>
<wgt id='scales1.00.5'>  0.209463651E+05 </wgt>
<wgt id='scales1.02.0'>  0.173235197E+05 </wgt>
<wgt id='scales2.01.0'>  0.161558135E+05 </wgt>
<wgt id='scales2.02.0'>  0.147206076E+05 </wgt>
</rwgt>
<scales uborns=' 0.394451270E+03'> </scales>
</event>
<event>
      5  10001  1.41459E+01  3.11546E+01  7.29735E-03  1.51909E-01
      21    -1     0     0   511   512  0.000000000E+00  0.000000000E+00  1.308198187E+03  1.308198187E+03  0.000000000E+00  0.00000E+00  9.000E+00
      -1    -1     0     0     0   514  0.000000000E+00  0.000000000E+00 -2.005898285E+03  2.005898285E+03  0.000000000E+00  0.00000E+00  9.000E+00
      -1     1     1     2     0   512 -4.207367035E+02 -1.297383565E+03 -1.108497990E+03  1.757552640E+03  4.037096117E-05  0.00000E+00  9.000E+00
      21     1     1     2   511   514  4.300163127E+02  1.327124068E+03  4.842887871E+02  1.476722028E+03  4.448663250E-05  0.00000E+00  9.000E+00
      22     1     1     2     0     0 -9.279609232E+00 -2.974050257E+01 -7.349089429E+01  7.982180269E+01  1.348699152E-06  0.00000E+00  9.000E+00
#rwgt            1         196   1.8269910463467907E-004        6024      146654           0
<rwgt>
<wgt id='central'>  0.141459464E+02 </wgt>
<wgt id='sudakovwgt'>  0.257502345E-01 </wgt>
<wgt id='scales0.50.5'>  0.191449449E+02 </wgt>
<wgt id='scales0.51.0'>  0.164750409E+02 </wgt>
<wgt id='scales1.00.5'>  0.164383493E+02 </wgt>
<wgt id='scales1.02.0'>  0.123090617E+02 </wgt>
<wgt id='scales2.01.0'>  0.122822543E+02 </wgt>
<wgt id='scales2.02.0'>  0.106874094E+02 </wgt>
</rwgt>
<scales uborns=' 0.137940997E+04'> </scales>
</event>
<event>
      5  10001  5.52719E+02  1.49936E+02  7.29735E-03  1.16401E-01
      21    -1     0     0   515   512  0.000000000E+00  0.000000000E+00  4.798679079E+02  4.798679079E+02  0.000000000E+00  0.00000E+00  9.000E+00
       2    -1     0     0   512     0  0.000000000E+00  0.000000000E+00 -1.785085209E+03  1.785085209E+03  0.000000000E+00  0.00000E+00  9.000E+00
      22     1     1     2     0     0 -2.981854771E+01 -2.014358372E+01 -7.188128434E+01  8.038550113E+01  9.536743164E-07  0.00000E+00  9.000E+00
      21     1     1     2   515   513  6.657949497E+02  2.714711611E+02  6.006440143E+01  7.215173170E+02  5.601568281E-06  0.00000E+00  9.000E+00
       2     1     1     2   513     0 -6.359764020E+02 -2.513275773E+02 -1.293400418E+03  1.463050299E+03  1.525878906E-05  0.00000E+00  9.000E+00
#rwgt            1         187   1.2926001576582202E-002        6024      146932           0
<rwgt>
<wgt id='central'>  0.552718524E+03 </wgt>
<wgt id='sudakovwgt'>  0.892322282E-01 </wgt>
<wgt id='scales0.50.5'>  0.726523186E+03 </wgt>
<wgt id='scales0.51.0'>  0.651662830E+03 </wgt>
<wgt id='scales1.00.5'>  0.616213094E+03 </wgt>
<wgt id='scales1.02.0'>  0.499051306E+03 </wgt>
<wgt id='scales2.01.0'>  0.474923761E+03 </wgt>
<wgt id='scales2.02.0'>  0.428809799E+03 </wgt>
</rwgt>
<scales uborns=' 0.719269061E+03'> </scales>
</event>
<event>
      5  10001  4.48708E+05  5.51318E+02  7.29735E-03  9.76612E-02
      21    -1     0     0   514   512  0.000000000E+00  0.000000000E+00  7.601898036E+02  7.601898036E+02  0.000000000E+00  0.00000E+00  9.000E+00
      21    -1     0     0   511   514  0.000000000E+00  0.000000000E+00 -1.216426174E+02  1.216426174E+02  0.000000000E+00  0.00000E+00  9.000E+00
       4     1     1     2   511     0 -4.557790481E+01  1.415156055E+02  2.210315092E+01  1.503082210E+02  1.563415176E-06  0.00000E+00  9.000E+00
      22     1     1     2     0     0  2.495886002E+01  6.840263260E-01 -4.671956397E+01  5.297291990E+01  2.023048729E-06  0.00000E+00  9.000E+00
      -4     1     1     2     0   512  2.061904480E+01 -1.421996319E+02  6.631635993E+02  6.785512801E+02  7.629394531E-06  0.00000E+00  9.000E+00
#rwgt            1         204   9.8477912856390968E-005        6024      147665           0
<rwgt>
<wgt id='central'>  0.448708318E+06 </wgt>
<wgt id='sudakovwgt'>  0.602064564E-03 </wgt>
<wgt id='scales0.50.5'>  0.589198942E+06 </wgt>
<wgt id='scales0.51.0'>  0.543463140E+06 </wgt>
<wgt id='scales1.00.5'>  0.486469567E+06 </wgt>
<wgt id='scales1.02.0'>  0.414335899E+06 </wgt>
<wgt id='scales2.01.0'>  0.377003275E+06 </wgt>
<wgt id='scales2.02.0'>  0.348123926E+06 </wgt>
</rwgt>
<scales uborns=' 0.232167543E+03'> </scales>
</event>
<event>
      5  10001  1.25704E+01  1.00037E+02  7.29735E-03  1.23821E-01
       2    -1     0     0   511     0  0.000000000E+00  0.000000000E+00  7.904747549E+02  7.904747549E+02  0.000000000E+00  0.00000E+00  9.000E+00
       2    -1     0     0   513     0  0.000000000E+00  0.000000000E+00 -2.795530142E+03  2.795530142E+03  0.000000000E+00  0.00000E+00  9.000E+00
       2     1     1     2   513     0 -1.373716187E+03 -2.838470801E+02 -4.330180523E+02  1.468049714E+03  2.018548058E-05  0.00000E+00  9.000E+00
       2     1     1     2   511     0  1.158528338E+03  1.559438396E+02 -1.295525382E+03  1.744962007E+03  0.000000000E+00  0.00000E+00  9.000E+00
      22     1     1     2     0     0  2.151878489E+02  1.279032405E+02 -2.765119530E+02  3.729931761E+02  3.814697266E-06  0.00000E+00  9.000E+00
#rwgt            1          97   1.6902201807061324E-003        6024      148169           0
<rwgt>
<wgt id='central'>  0.125704285E+02 </wgt>
<wgt id='sudakovwgt'>  0.131484631E-02 </wgt>
<wgt id='scales0.50.5'>  0.161394769E+02 </wgt>
<wgt id='scales0.51.0'>  0.146345290E+02 </wgt>
<wgt id='scales1.00.5'>  0.138630824E+02 </wgt>
<wgt id='scales1.02.0'>  0.114671557E+02 </wgt>
<wgt id='scales2.01.0'>  0.109178968E+02 </wgt>
<wgt id='scales2.02.0'>  0.995968485E+01 </wgt>
</rwgt>
<scales uborns=' 0.141019619E+04'> </scales>
</event>
<event>
      5  10001  2.04263E+02  3.42865E+01  7.29735E-03  1.49117E-01
       2    -1     0     0   513     0  0.000000000E+00  0.000000000E+00  2.812385572E+03  2.812385572E+03  0.000000000E+00  0.00000E+00  9.000E+00
      21    -1     0     0   512   514  0.000000000E+00  0.000000000E+00 -2.766021146E+02  2.766021146E+02  0.000000000E+00  0.00000E+00  9.000E+00
       2     1     1     2   512     0 -6.795960775E+02 -5.258863404E+02  1.153624328E+03  1.438491002E+03  1.525878906E-05  0.00000E+00  9.000E+00
      21     1     1     2   513   514  6.918992111E+02  4.938832770E+02  1.234293523E+03  1.498708014E+03  3.737624730E-05  0.00000E+00  9.000E+00
      22     1     1     2     0     0 -1.230313362E+01  3.200306337E+01  1.478656058E+02  1.517886707E+02  2.697398305E-06  0.00000E+00  9.000E+00
#rwgt            1         182   7.9050341069221569E-003        6024      163744           0
<rwgt>
<wgt id='central'>  0.204263274E+03 </wgt>
<wgt id='sudakovwgt'>  0.301158067E-01 </wgt>
<wgt id='scales0.50.5'>  0.268345041E+03 </wgt>
<wgt id='scales0.51.0'>  0.240002769E+03 </wgt>
<wgt id='scales1.00.5'>  0.228384711E+03 </wgt>
<wgt id='scales1.02.0'>  0.183843743E+03 </wgt>
<wgt id='scales2.01.0'>  0.176024275E+03 </wgt>
<wgt id='scales2.02.0'>  0.158427917E+03 </wgt>
</rwgt>
<scales uborns=' 0.854523911E+03'> </scales>
</event>
<event>
      4  10001  9.20709E+02  8.94427E-01  7.29735E-03  7.51738E-01
      21    -1     0     0   511   512  0.000000000E+00  0.000000000E+00  3.967807406E+02  3.967807406E+02  0.000000000E+00  0.00000E+00  9.000E+00
       1    -1     0     0   515     0  0.000000000E+00  0.000000000E+00 -1.255983296E+03  1.255983296E+03  0.000000000E+00  0.00000E+00  9.000E+00
       1     1     1     2   511     0 -6.589524028E+02 -3.300771575E+00 -7.260251409E+02  9.804803258E+02  0.000000000E+00  0.00000E+00  9.000E+00
      21     1     1     2   515   512  6.589524028E+02  3.300771575E+00 -1.331774147E+02  6.722837109E+02  1.095688371E-05  0.00000E+00  9.000E+00
#rwgt            1         186   4.1760701132460510E-003        6024      165973           0
<rwgt>
<wgt id='central'>  0.920709012E+03 </wgt>
<wgt id='sudakovwgt'>  0.349690792E+01 </wgt>
<wgt id='scales0.50.5'>  0.119887213E+04 </wgt>
<wgt id='scales0.51.0'>  0.108748806E+04 </wgt>
<wgt id='scales1.00.5'>  0.101501101E+04 </wgt>
<wgt id='scales1.02.0'>  0.839696261E+03 </wgt>
<wgt id='scales2.01.0'>  0.789914817E+03 </wgt>
<wgt id='scales2.02.0'>  0.720410595E+03 </wgt>
</rwgt>
<scales uborns=' 0.658960670E+03'> </scales>
</event>
<event>
      4  10001  1.17949E+03  8.94427E-01  7.29735E-03  7.49152E-01
      21    -1     0     0   514   512  0.000000000E+00  0.000000000E+00  3.109575630E+02  3.109575630E+02  0.000000000E+00  0.00000E+00  9.000E+00
       1    -1     0     0   512     0  0.000000000E+00  0.000000000E+00 -1.498457818E+03  1.498457818E+03  0.000000000E+00  0.00000E+00  9.000E+00
       1     1     1     2   513     0 -4.355424493E+02 -4.574516807E+02 -9.368059871E+02  1.129851637E+03  1.525878906E-05  0.00000E+00  9.000E+00
      21     1     1     2   514   513  4.355424493E+02  4.574516807E+02 -2.506942675E+02  6.795637432E+02  1.009274029E-05  0.00000E+00  9.000E+00
#rwgt            1         186   5.0768063705666222E-003        6024      167534           0
<rwgt>
<wgt id='central'>  0.117949075E+04 </wgt>
<wgt id='sudakovwgt'>  0.322144201E+01 </wgt>
<wgt id='scales0.50.5'>  0.153725901E+04 </wgt>
<wgt id='scales0.51.0'>  0.139438184E+04 </wgt>
<wgt id='scales1.00.5'>  0.130034799E+04 </wgt>
<wgt id='scales1.02.0'>  0.107534144E+04 </wgt>
<wgt id='scales2.01.0'>  0.101117707E+04 </wgt>
<wgt id='scales2.02.0'>  0.921890492E+03 </wgt>
</rwgt>
<scales uborns=' 0.631632223E+03'> </scales>
</event>
<event>
      5  10001  5.82605E+04  1.88999E+00  7.29735E-03  3.74939E-01
      -1    -1     0     0     0   511  0.000000000E+00  0.000000000E+00  2.225639680E+02  2.225639680E+02  0.000000000E+00  0.00000E+00  9.000E+00
      21    -1     0     0   513   514  0.000000000E+00  0.000000000E+00 -5.514216841E+02  5.514216841E+02  0.000000000E+00  0.00000E+00  9.000E+00
      -1     1     1     2     0   514  3.117961559E+02 -9.668332208E+01 -2.746964566E+02  4.266411265E+02  7.629394531E-06  0.00000E+00  9.000E+00
      21     1     1     2   513   511 -3.119574957E+02  9.856640877E+01 -6.735153937E+01  3.340195293E+02  4.370284743E-06  0.00000E+00  9.000E+00
      22     1     1     2     0     0  1.613398499E-01 -1.883086690E+00  1.319027980E+01  1.332499633E+01  0.000000000E+00  0.00000E+00  9.000E+00
#rwgt            1         191   3.1157461610114201E-004        6024      169329           0
<rwgt>
<wgt id='central'>  0.582604537E+05 </wgt>
<wgt id='sudakovwgt'>  0.389865924E-01 </wgt>
<wgt id='scales0.50.5'>  0.742420902E+05 </wgt>
<wgt id='scales0.51.0'>  0.699280269E+05 </wgt>
<wgt id='scales1.00.5'>  0.618547597E+05 </wgt>
<wgt id='scales1.02.0'>  0.549393876E+05 </wgt>
<wgt id='scales2.01.0'>  0.493171630E+05 </wgt>
<wgt id='scales2.02.0'>  0.465058614E+05 </wgt>
</rwgt>
<scales uborns=' 0.326799097E+03'> </scales>
</event>
<event>
      5  10001  2.15548E+00  2.44845E+01  7.29735E-03  1.59431E-01
       2    -1     0     0   512     0  0.000000000E+00  0.000000000E+00  3.978871165E+03  3.978871165E+03  0.000000000E+00  0.00000E+00  9.000E+00
       2    -1     0     0   511     0  0.000000000E+00  0.000000000E+00 -3.543371435E+03  3.543371435E+03  0.000000000E+00  0.00000E+00  9.000E+00
       2     1     1     2   512     0 -1.860551904E+03  7.142003288E+02 -2.968267388E+03  3.575240801E+03  4.315837288E-05  0.00000E+00  9.000E+00
       2     1     1     2   511     0  1.829587234E+03 -6.824303370E+02  3.305741683E+03  3.839404731E+03  4.315837288E-05  0.00000E+00  9.000E+00
      22     1     1     2     0     0  3.096466997E+01 -3.176999179E+01  9.802543557E+01  1.075970687E+02  1.348699152E-06  0.00000E+00  9.000E+00
#rwgt            1          97   8.6330569771827931E-003        6024      169758           0
<rwgt>
<wgt id='central'>  0.215547720E+01 </wgt>
<wgt id='sudakovwgt'>  0.498804991E-02 </wgt>
<wgt id='scales0.50.5'>  0.302628320E+01 </wgt>
<wgt id='scales0.51.0'>  0.249501335E+01 </wgt>
<wgt id='scales1.00.5'>  0.261445211E+01 </wgt>
<wgt id='scales1.02.0'>  0.180041358E+01 </wgt>
<wgt id='scales2.01.0'>  0.188140560E+01 </wgt>
<wgt id='scales2.02.0'>  0.157148672E+01 </wgt>
</rwgt>
<scales uborns=' 0.199367991E+04'> </scales>
</event>
<event>
      5  10001  1.56378E+02  3.63204E+01  7.29735E-03  1.47488E-01
       1    -1     0     0   514     0  0.000000000E+00  0.000000000E+00  1.729836180E+03  1.729836180E+03  0.000000000E+00  0.00000E+00  9.000E+00
      21    -1     0     0   512   514  0.000000000E+00  0.000000000E+00 -9.437461650E+02  9.437461650E+02  0.000000000E+00  0.00000E+00  9.000E+00
       1     1     1     2   513     0  5.483089805E+02 -5.106117355E+02  1.096563120E+03  1.328088009E+03  1.525878906E-05  0.00000E+00  9.000E+00
      21     1     1     2   512   513 -6.340575722E+02  6.309439239E+02 -5.601234158E+02  1.055394467E+03  7.629394531E-06  0.00000E+00  9.000E+00
      22     1     1     2     0     0  8.574859168E+01 -1.203321884E+02  2.496503102E+02  2.900998689E+02  2.697398305E-06  0.00000E+00  9.000E+00
#rwgt            1         181   2.9458437630835469E-003        6024      221980           0
<rwgt>
<wgt id='central'>  0.156378367E+03 </wgt>
<wgt id='sudakovwgt'>  0.508262816E-01 </wgt>
<wgt id='scales0.50.5'>  0.211477354E+03 </wgt>
<wgt id='scales0.51.0'>  0.183573148E+03 </wgt>
<wgt id='scales1.00.5'>  0.180148383E+03 </wgt>
<wgt id='scales1.02.0'>  0.137045522E+03 </wgt>
<wgt id='scales2.01.0'>  0.134862774E+03 </wgt>
<wgt id='scales2.02.0'>  0.118190149E+03 </wgt>
</rwgt>
<scales uborns=' 0.895333247E+03'> </scales>
</event>
<event>
      4  10001  1.99022E+02  8.94427E-01  7.29735E-03  7.51397E-01
      21    -1     0     0   511   515  0.000000000E+00  0.000000000E+00  5.490289057E+02  5.490289057E+02  0.000000000E+00  0.00000E+00  9.000E+00
       1    -1     0     0   513     0  0.000000000E+00  0.000000000E+00 -2.783261496E+03  2.783261496E+03  0.000000000E+00  0.00000E+00  9.000E+00
       1     1     1     2   511     0  7.276709276E+02 -4.553604634E+02 -2.316036832E+03  2.469996911E+03  5.285799584E-05  0.00000E+00  9.000E+00
      21     1     1     2   513   515 -7.276709276E+02  4.553604634E+02  8.180424203E+01  8.622934910E+02  1.341938713E-05  0.00000E+00  9.000E+00
#rwgt            1         186   3.8662170898824777E-003        6024      222302           0
<rwgt>
<wgt id='central'>  0.199022194E+03 </wgt>
<wgt id='sudakovwgt'>  0.239548309E+01 </wgt>
<wgt id='scales0.50.5'>  0.273041387E+03 </wgt>
<wgt id='scales0.51.0'>  0.233824094E+03 </wgt>
<wgt id='scales1.00.5'>  0.232402239E+03 </wgt>
<wgt id='scales1.02.0'>  0.172199521E+03 </wgt>
<wgt id='scales2.01.0'>  0.171520683E+03 </wgt>
<wgt id='scales2.02.0'>  0.148404596E+03 </wgt>
</rwgt>
<scales uborns=' 0.858404410E+03'> </scales>
</event>
<event>
      5  10001  3.36280E+04  3.69362E+00  7.29735E-03  2.71900E-01
       2    -1     0     0   514     0  0.000000000E+00  0.000000000E+00  8.425509968E+02  8.425509968E+02  0.000000000E+00  0.00000E+00  9.000E+00
      21    -1     0     0   511   514  0.000000000E+00  0.000000000E+00 -2.728244926E+02  2.728244926E+02  0.000000000E+00  0.00000E+00  9.000E+00
       2     1     1     2   512     0  2.462628322E+01  3.561827273E+02  6.038433555E+02  7.014979594E+02  7.629394531E-06  0.00000E+00  9.000E+00
      21     1     1     2   511   512 -2.732218118E+01 -3.587075985E+02 -7.943243463E+01  3.684116644E+02  5.394796609E-06  0.00000E+00  9.000E+00
      22     1     1     2     0     0  2.695897964E+00  2.524871168E+00  4.531558327E+01  4.546586551E+01  0.000000000E+00  0.00000E+00  9.000E+00
#rwgt            1         182   6.1129202200842234E-003        6024      224066           0
<rwgt>
<wgt id='central'>  0.336280222E+05 </wgt>
<wgt id='sudakovwgt'>  0.811254057E-01 </wgt>
<wgt id='scales0.50.5'>  0.427140273E+05 </wgt>
<wgt id='scales0.51.0'>  0.402700641E+05 </wgt>
<wgt id='scales1.00.5'>  0.356688608E+05 </wgt>
<wgt id='scales1.02.0'>  0.317469035E+05 </wgt>
<wgt id='scales2.01.0'>  0.285201431E+05 </wgt>
<wgt id='scales2.02.0'>  0.269247720E+05 </wgt>
</rwgt>
<scales uborns=' 0.358386129E+03'> </scales>
</event>
<event>
      4  10001  1.17216E+03  8.94427E-01  7.29735E-03  7.51564E-01
      21    -1     0     0   512   511  0.000000000E+00  0.000000000E+00  5.240902987E+02  5.240902987E+02  0.000000000E+00  0.00000E+00  9.000E+00
      -2    -1     0     0     0   513  0.000000000E+00  0.000000000E+00 -9.060574445E+02  9.060574445E+02  0.000000000E+00  0.00000E+00  9.000E+00
      -2     1     1     2     0   511 -1.087027930E+02  6.228913102E+02 -4.752554250E+02  7.909978512E+02  1.206313194E-05  0.00000E+00  9.000E+00
      21     1     1     2   512   513  1.087027930E+02 -6.228913102E+02  9.328827923E+01  6.391498921E+02  7.979011789E-06  0.00000E+00  9.000E+00
#rwgt            1         197   6.8717451172684648E-004        6024      230905           0
<rwgt>
<wgt id='central'>  0.117216085E+04 </wgt>
<wgt id='sudakovwgt'>  0.202215564E+02 </wgt>
<wgt id='scales0.50.5'>  0.153153480E+04 </wgt>
<wgt id='scales0.51.0'>  0.138568531E+04 </wgt>
<wgt id='scales1.00.5'>  0.129553501E+04 </wgt>
<wgt id='scales1.02.0'>  0.106645310E+04 </wgt>
<wgt id='scales2.01.0'>  0.100491206E+04 </wgt>
<wgt id='scales2.02.0'>  0.914287790E+03 </wgt>
</rwgt>
<scales uborns=' 0.632305212E+03'> </scales>
</event>
<event>
      5  10001  5.67154E+01  2.26019E+00  7.29735E-03  3.39976E-01
      21    -1     0     0   514   511  0.000000000E+00  0.000000000E+00  8.594783897E+02  8.594783897E+02  0.000000000E+00  0.00000E+00  9.000E+00
       1    -1     0     0   515     0  0.000000000E+00  0.000000000E+00 -1.810623348E+03  1.810623348E+03  0.000000000E+00  0.00000E+00  9.000E+00
       1     1     1     2   514     0 -5.136672623E+02 -4.816294456E+02 -7.616043721E+02  1.037237774E+03  3.051757812E-05  0.00000E+00  9.000E+00
      21     1     1     2   515   511  7.799600124E+02  7.340650909E+02  2.088544856E+02  1.091242125E+03  1.888178813E-05  0.00000E+00  9.000E+00
      22     1     1     2     0     0 -2.662927501E+02 -2.524356453E+02 -3.983950716E+02  5.416218394E+02  1.525878906E-05  0.00000E+00  9.000E+00
#rwgt            1         186   3.5589781846009599E-003        6024      239812           0
<rwgt>
<wgt id='central'>  0.567154279E+02 </wgt>
<wgt id='sudakovwgt'>  0.416830578E-01 </wgt>
<wgt id='scales0.50.5'>  0.761413769E+02 </wgt>
<wgt id='scales0.51.0'>  0.663537818E+02 </wgt>
<wgt id='scales1.00.5'>  0.650812738E+02 </wgt>
<wgt id='scales1.02.0'>  0.498725965E+02 </wgt>
<wgt id='scales2.01.0'>  0.490531424E+02 </wgt>
<wgt id='scales2.02.0'>  0.431348026E+02 </wgt>
</rwgt>
<scales uborns=' 0.107107086E+04'> </scales>
</event>
<event>
      5  10001  1.65944E+01  1.78764E+02  7.29735E-03  1.13452E-01
       4    -1     0     0   514     0  0.000000000E+00  0.000000000E+00  1.779390712E+03  1.779390712E+03  0.000000000E+00  0.00000E+00  9.000E+00
      21    -1     0     0   512   513  0.000000000E+00  0.000000000E+00 -1.648093038E+03  1.648093038E+03  0.000000000E+00  0.00000E+00  9.000E+00
       4     1     1     2   512     0  1.002005164E+03  6.223340154E+02 -7.684986780E+02  1.407801191E+03  3.051757812E-05  0.00000E+00  9.000E+00
      21     1     1     2   514   513 -1.185242213E+03 -5.841951266E+02  1.118930060E+03  1.731498637E+03  1.525878906E-05  0.00000E+00  9.000E+00
      22     1     1     2     0     0  1.832370489E+02 -3.813888876E+01 -2.191337078E+02  2.881839218E+02  3.814697266E-06  0.00000E+00  9.000E+00
#rwgt            1         184   9.5923507730035651E-006        6024      240919           0
<rwgt>
<wgt id='central'>  0.165944271E+02 </wgt>
<wgt id='sudakovwgt'>  0.216098976E-02 </wgt>
<wgt id='scales0.50.5'>  0.218328448E+02 </wgt>
<wgt id='scales0.51.0'>  0.193367009E+02 </wgt>
<wgt id='scales1.00.5'>  0.187365447E+02 </wgt>
<wgt id='scales1.02.0'>  0.147817016E+02 </wgt>
<wgt id='scales2.01.0'>  0.144017921E+02 </wgt>
<wgt id='scales2.02.0'>  0.128286044E+02 </wgt>
</rwgt>
<scales uborns=' 0.133907279E+04'> </scales>
</event>
<event>
      5  10001  1.70796E+01  3.47199E+00  7.29735E-03  2.78851E-01
      21    -1     0     0   511   512  0.000000000E+00  0.000000000E+00  1.207792449E+03  1.207792449E+03  0.000000000E+00  0.00000E+00  9.000E+00
       1    -1     0     0   515     0  0.000000000E+00  0.000000000E+00 -1.621202800E+03  1.621202800E+03  0.000000000E+00  0.00000E+00  9.000E+00
       1     1     1     2   511     0  1.208991999E+03 -5.282570305E+02  2.258860901E+02  1.338559550E+03  2.174712038E-05  0.00000E+00  9.000E+00
      21     1     1     2   515   512 -1.219015033E+03  5.361883882E+02 -6.402106577E+02  1.477621509E+03  1.705984480E-05  0.00000E+00  9.000E+00
      22     1     1     2     0     0  1.002303444E+01 -7.931357708E+00  9.142166623E-01  1.281418927E+01  2.337155810E-07  0.00000E+00  9.000E+00
#rwgt            1         186   6.7783339328305334E-004        6024      241095           0
<rwgt>
<wgt id='central'>  0.170795747E+02 </wgt>
<wgt id='sudakovwgt'>  0.821195776E-03 </wgt>
<wgt id='scales0.50.5'>  0.229646847E+02 </wgt>
<wgt id='scales0.51.0'>  0.199039439E+02 </wgt>
<wgt id='scales1.00.5'>  0.197060256E+02 </wgt>
<wgt id='scales1.02.0'>  0.149461344E+02 </wgt>
<wgt id='scales2.01.0'>  0.148216967E+02 </wgt>
<wgt id='scales2.02.0'>  0.129702727E+02 </wgt>
</rwgt>
<scales uborns=' 0.133194372E+04'> </scales>
</event>
<event>
      5  10001  1.93856E+06  1.18855E+02  7.29735E-03  1.20545E-01
       2    -1     0     0   514     0  0.000000000E+00  0.000000000E+00  2.672496971E+02  2.672496971E+02  0.000000000E+00  0.00000E+00  9.000E+00
      21    -1     0     0   513   511  0.000000000E+00  0.000000000E+00 -1.241615484E+02  1.241615484E+02  0.000000000E+00  0.00000E+00  9.000E+00
       2     1     1     2   513     0 -8.256701467E+01 -1.382740275E+02  1.154787807E+02  1.981725697E+02  2.697398305E-06  0.00000E+00  9.000E+00
      21     1     1     2   514   511  5.213769926E+01  1.209865052E+02  6.071881365E+01  1.450615334E+02  2.023048729E-06  0.00000E+00  9.000E+00
      22     1     1     2     0     0  3.042931540E+01  1.728752230E+01 -3.310944560E+01  4.817714242E+01  1.261592536E-06  0.00000E+00  9.000E+00
#rwgt            1         182   1.8695726584678763E-003        6024      242029           0
<rwgt>
<wgt id='central'>  0.193855957E+07 </wgt>
<wgt id='sudakovwgt'>  0.548404455E-03 </wgt>
<wgt id='scales0.50.5'>  0.235128796E+07 </wgt>
<wgt id='scales0.51.0'>  0.236457027E+07 </wgt>
<wgt id='scales1.00.5'>  0.192767069E+07 </wgt>
<wgt id='scales1.02.0'>  0.193491424E+07 </wgt>
<wgt id='scales2.01.0'>  0.161939082E+07 </wgt>
<wgt id='scales2.02.0'>  0.161634531E+07 </wgt>
</rwgt>
<scales uborns=' 0.181802619E+03'> </scales>
</event>
<event>
      4  10001  5.27110E+03  8.94427E-01  7.29735E-03  7.50996E-01
       4    -1     0     0   511     0  0.000000000E+00  0.000000000E+00  6.208199480E+02  6.208199480E+02  0.000000000E+00  0.00000E+00  9.000E+00
      21    -1     0     0   512   515  0.000000000E+00  0.000000000E+00 -4.420025833E+02  4.420025833E+02  0.000000000E+00  0.00000E+00  9.000E+00
       4     1     1     2   512     0  3.278413643E+02 -3.638416136E+02  2.779548417E+02  5.631337088E+02  7.629394531E-06  0.00000E+00  9.000E+00
      21     1     1     2   511   515 -3.278413643E+02  3.638416136E+02 -9.913747700E+01  4.996888225E+02  7.979011789E-06  0.00000E+00  9.000E+00
#rwgt            1         184   2.1741429186388815E-004        6024      242470           0
<rwgt>
<wgt id='central'>  0.527109763E+04 </wgt>
<wgt id='sudakovwgt'>  0.212067076E+02 </wgt>
<wgt id='scales0.50.5'>  0.648838606E+04 </wgt>
<wgt id='scales0.51.0'>  0.626606532E+04 </wgt>
<wgt id='scales1.00.5'>  0.545811924E+04 </wgt>
<wgt id='scales1.02.0'>  0.506608774E+04 </wgt>
<wgt id='scales2.01.0'>  0.449792511E+04 </wgt>
<wgt id='scales2.02.0'>  0.432298444E+04 </wgt>
</rwgt>
<scales uborns=' 0.489755735E+03'> </scales>
</event>
<event>
      5  10001  4.39249E+05  1.12178E+02  7.29735E-03  1.21624E-01
      21    -1     0     0   513   512  0.000000000E+00  0.000000000E+00  2.317962343E+02  2.317962343E+02  0.000000000E+00  0.00000E+00  9.000E+00
       2    -1     0     0   514     0  0.000000000E+00  0.000000000E+00 -1.087202462E+03  1.087202462E+03  0.000000000E+00  0.00000E+00  9.000E+00
       2     1     1     2   513     0  1.350650660E+02 -1.112892355E+02 -5.098644405E+02  5.390636453E+02  7.629394531E-06  0.00000E+00  9.000E+00
      21     1     1     2   514   512 -1.943393167E+02  1.222914915E+02  1.541887643E+02  2.765811887E+02  6.031565972E-06  0.00000E+00  9.000E+00
      22     1     1     2     0     0  5.927425079E+01 -1.100225601E+01 -4.997305520E+02  5.033538627E+02  5.394796609E-06  0.00000E+00  9.000E+00
#rwgt            1         187   9.8029155272159781E-003        6024      244562           0
<rwgt>
<wgt id='central'>  0.439249329E+06 </wgt>
<wgt id='sudakovwgt'>  0.179141717E-02 </wgt>
<wgt id='scales0.50.5'>  0.567405980E+06 </wgt>
<wgt id='scales0.51.0'>  0.531953955E+06 </wgt>
<wgt id='scales1.00.5'>  0.468522711E+06 </wgt>
<wgt id='scales1.02.0'>  0.412333333E+06 </wgt>
<wgt id='scales2.01.0'>  0.369085874E+06 </wgt>
<wgt id='scales2.02.0'>  0.346469561E+06 </wgt>
</rwgt>
<scales uborns=' 0.232996227E+03'> </scales>
</event>
<event>
      4  10001  2.17328E+03  8.94427E-01  7.29735E-03  7.46933E-01
       1    -1     0     0   515     0  0.000000000E+00  0.000000000E+00  1.903067557E+03  1.903067557E+03  0.000000000E+00  0.00000E+00  9.000E+00
      21    -1     0     0   511   513  0.000000000E+00  0.000000000E+00 -4.222656575E+02  4.222656575E+02  0.000000000E+00  0.00000E+00  9.000E+00
       1     1     1     2   511     0  2.930390751E+02  4.879216566E+02  1.638661347E+03  1.734690304E+03  0.000000000E+00  0.00000E+00  9.000E+00
      21     1     1     2   515   513 -2.930390751E+02 -4.879216566E+02 -1.578594471E+02  5.906429103E+02  5.394796609E-06  0.00000E+00  9.000E+00
#rwgt            1         181   3.9436946151289618E-003        6024      245173           0
<rwgt>
<wgt id='central'>  0.217327547E+04 </wgt>
<wgt id='sudakovwgt'>  0.175523699E+01 </wgt>
<wgt id='scales0.50.5'>  0.291236443E+04 </wgt>
<wgt id='scales0.51.0'>  0.257495026E+04 </wgt>
<wgt id='scales1.00.5'>  0.245806044E+04 </wgt>
<wgt id='scales1.02.0'>  0.193629610E+04 </wgt>
<wgt id='scales2.01.0'>  0.185966921E+04 </wgt>
<wgt id='scales2.02.0'>  0.165688279E+04 </wgt>
</rwgt>
<scales uborns=' 0.569156782E+03'> </scales>
</event>
<event>
      5  10001  2.18448E+01  2.50040E+01  7.29735E-03  1.58745E-01
       3    -1     0     0   511     0  0.000000000E+00  0.000000000E+00  1.213188360E+03  1.213188360E+03  0.000000000E+00  0.00000E+00  9.000E+00
       1    -1     0     0   512     0  0.000000000E+00  0.000000000E+00 -1.364717263E+03  1.364717263E+03  0.000000000E+00  0.00000E+00  9.000E+00
      22     1     1     2     0     0  3.362356372E+02 -6.744504817E+02 -1.430233173E+02  7.670681360E+02  1.595802358E-05  0.00000E+00  9.000E+00
       1     1     1     2   511     0 -5.578509495E+02  1.143929511E+03  1.128160656E+02  1.277693184E+03  3.581043883E-05  0.00000E+00  9.000E+00
       3     1     1     2   512     0  2.216153122E+02 -4.694790288E+02 -1.213216509E+02  5.331443032E+02  7.262967211E-06  0.00000E+00  9.000E+00
#rwgt            1          93   3.8596763105222846E-005        6024      246366           0
<rwgt>
<wgt id='central'>  0.218447985E+02 </wgt>
<wgt id='sudakovwgt'>  0.119262791E-02 </wgt>
<wgt id='scales0.50.5'>  0.279871941E+02 </wgt>
<wgt id='scales0.51.0'>  0.254774958E+02 </wgt>
<wgt id='scales1.00.5'>  0.239966543E+02 </wgt>
<wgt id='scales1.02.0'>  0.199931255E+02 </wgt>
<wgt id='scales2.01.0'>  0.189439841E+02 </wgt>
<wgt id='scales2.02.0'>  0.173381972E+02 </wgt>
</rwgt>
<scales uborns=' 0.127287611E+04'> </scales>
</event>
<event>
      5  10001  3.07001E+02  1.29863E+02  7.29735E-03  1.18930E-01
       1    -1     0     0   513     0  0.000000000E+00  0.000000000E+00  8.043172074E+02  8.043172074E+02  0.000000000E+00  0.00000E+00  9.000E+00
       2    -1     0     0   512     0  0.000000000E+00  0.000000000E+00 -1.853379487E+03  1.853379487E+03  0.000000000E+00  0.00000E+00  9.000E+00
       1     1     1     2   512     0  8.373123277E+02 -1.231015943E+02  4.198980541E+02  9.447541016E+02  2.472206382E-05  0.00000E+00  9.000E+00
       2     1     1     2   513     0 -7.492706214E+02  2.763902314E+01 -1.215473226E+03  1.428126585E+03  2.157918644E-05  0.00000E+00  9.000E+00
      22     1     1     2     0     0 -8.804170625E+01  9.546257117E+01 -2.534871069E+02  2.848160071E+02  2.697398305E-06  0.00000E+00  9.000E+00
#rwgt            1          96   2.0194446420645014E-003        6024      249466           0
<rwgt>
<wgt id='central'>  0.307001241E+03 </wgt>
<wgt id='sudakovwgt'>  0.275711579E-01 </wgt>
<wgt id='scales0.50.5'>  0.391018937E+03 </wgt>
<wgt id='scales0.51.0'>  0.361219817E+03 </wgt>
<wgt id='scales1.00.5'>  0.332327295E+03 </wgt>
<wgt id='scales1.02.0'>  0.284922792E+03 </wgt>
<wgt id='scales2.01.0'>  0.264246727E+03 </wgt>
<wgt id='scales2.02.0'>  0.245243225E+03 </wgt>
</rwgt>
<scales uborns=' 0.796118407E+03'> </scales>
</event>
<event>
      5  10001  1.43330E+09  1.47245E+00  7.29735E-03  4.51082E-01
       2    -1     0     0   513     0  0.000000000E+00  0.000000000E+00  2.750613271E+03  2.750613271E+03  0.000000000E+00  0.00000E+00  9.000E+00
      21    -1     0     0   514   513  0.000000000E+00  0.000000000E+00 -4.212871579E+00  4.212871579E+00  0.000000000E+00  0.00000E+00  9.000E+00
      22     1     1     2     0     0  1.069515576E+00  1.217399007E+00  6.634314915E+01  6.636293667E+01  0.000000000E+00  0.00000E+00  9.000E+00
      21     1     1     2   514   511 -4.067639427E+01 -4.465357455E+01  2.330661140E+02  2.407661195E+02  9.344061824E-06  0.00000E+00  9.000E+00
       2     1     1     2   511     0  3.960687869E+01  4.343617555E+01  2.446991137E+03  2.447697087E+03  0.000000000E+00  0.00000E+00  9.000E+00
#rwgt            1         182   9.0941583404616291E-002        6024      254048           0
<rwgt>
<wgt id='central'>  0.143330345E+10 </wgt>
<wgt id='sudakovwgt'>  0.501813189E-01 </wgt>
<wgt id='scales0.50.5'>  0.172327608E+10 </wgt>
<wgt id='scales0.51.0'>  0.181950449E+10 </wgt>
<wgt id='scales1.00.5'>  0.135749684E+10 </wgt>
<wgt id='scales1.02.0'>  0.147699588E+10 </wgt>
<wgt id='scales2.01.0'>  0.115979098E+10 </wgt>
<wgt id='scales2.02.0'>  0.119514861E+10 </wgt>
</rwgt>
<scales uborns=' 0.604029805E+02'> </scales>
</event>
<event>
      5  10001  2.03354E+04  3.72327E+01  7.29735E-03  1.46798E-01
      21    -1     0     0   512   515  0.000000000E+00  0.000000000E+00  3.325438346E+02  3.325438346E+02  0.000000000E+00  0.00000E+00  9.000E+00
       2    -1     0     0   511     0  0.000000000E+00  0.000000000E+00 -7.443384946E+02  7.443384946E+02  0.000000000E+00  0.00000E+00  9.000E+00
       2     1     1     2   512     0  2.125532276E+02  3.086056751E+02  1.057333524E+02  3.893531547E+02  8.946258087E-06  0.00000E+00  9.000E+00
      21     1     1     2   511   515 -2.472872464E+02 -3.220154315E+02 -4.248823476E+02  5.876818269E+02  1.427329020E-05  0.00000E+00  9.000E+00
      22     1     1     2     0     0  3.473401880E+01  1.340975648E+01 -9.264566476E+01  9.984734764E+01  1.348699152E-06  0.00000E+00  9.000E+00
#rwgt            1         187   6.9712043540541915E-004        6024      261593           0
<rwgt>
<wgt id='central'>  0.203354320E+05 </wgt>
<wgt id='sudakovwgt'>  0.256029433E-01 </wgt>
<wgt id='scales0.50.5'>  0.258047078E+05 </wgt>
<wgt id='scales0.51.0'>  0.243020919E+05 </wgt>
<wgt id='scales1.00.5'>  0.215927525E+05 </wgt>
<wgt id='scales1.02.0'>  0.191847504E+05 </wgt>
<wgt id='scales2.01.0'>  0.172760455E+05 </wgt>
<wgt id='scales2.02.0'>  0.162985051E+05 </wgt>
</rwgt>
<scales uborns=' 0.390011677E+03'> </scales>
</event>
<event>
      5  10001  8.61499E+00  4.12368E+01  7.29735E-03  1.44025E-01
      21    -1     0     0   513   514  0.000000000E+00  0.000000000E+00  1.791408941E+03  1.791408941E+03  0.000000000E+00  0.00000E+00  9.000E+00
       2    -1     0     0   512     0  0.000000000E+00  0.000000000E+00 -1.391231665E+03  1.391231665E+03  0.000000000E+00  0.00000E+00  9.000E+00
       2     1     1     2   513     0 -1.420327482E+03 -1.992326881E+02  6.532394900E+02  1.575990372E+03  3.051757812E-05  0.00000E+00  9.000E+00
      21     1     1     2   512   514  1.496894589E+03  1.951496168E+02 -2.481009416E+02  1.529813996E+03  7.136645101E-06  0.00000E+00  9.000E+00
      22     1     1     2     0     0 -7.656710688E+01  4.083071303E+00 -4.961271616E+00  7.683623847E+01  2.175365399E-06  0.00000E+00  9.000E+00
#rwgt            1         187   1.1507144570372932E-003        6024      262098           0
<rwgt>
<wgt id='central'>  0.861498996E+01 </wgt>
<wgt id='sudakovwgt'>  0.394330212E-02 </wgt>
<wgt id='scales0.50.5'>  0.115775913E+02 </wgt>
<wgt id='scales0.51.0'>  0.100173423E+02 </wgt>
<wgt id='scales1.00.5'>  0.995681592E+01 </wgt>
<wgt id='scales1.02.0'>  0.752855751E+01 </wgt>
<wgt id='scales2.01.0'>  0.749032349E+01 </wgt>
<wgt id='scales2.02.0'>  0.654572218E+01 </wgt>
</rwgt>
<scales uborns=' 0.151454405E+04'> </scales>
</event>
<event>
      4  10001  8.95177E+02  8.94427E-01  7.29735E-03  7.25880E-01
      21    -1     0     0   511   515  0.000000000E+00  0.000000000E+00  1.291449244E+03  1.291449244E+03  0.000000000E+00  0.00000E+00  9.000E+00
      -3    -1     0     0     0   511  0.000000000E+00  0.000000000E+00 -5.051968668E+02  5.051968668E+02  0.000000000E+00  0.00000E+00  9.000E+00
      -3     1     1     2     0   513  5.908081964E+02  2.989591779E+02  9.076147340E+02  1.123474708E+03  1.078959322E-05  0.00000E+00  9.000E+00
      21     1     1     2   513   515 -5.908081964E+02 -2.989591779E+02 -1.213623571E+02  6.731714021E+02  7.008046368E-06  0.00000E+00  9.000E+00
#rwgt            1         198   2.5583059368990520E-005        6024      263129           0
<rwgt>
<wgt id='central'>  0.895177004E+03 </wgt>
<wgt id='sudakovwgt'>  0.233962306E+01 </wgt>
<wgt id='scales0.50.5'>  0.117464838E+04 </wgt>
<wgt id='scales0.51.0'>  0.105722515E+04 </wgt>
<wgt id='scales1.00.5'>  0.994601966E+03 </wgt>
<wgt id='scales1.02.0'>  0.810132280E+03 </wgt>
<wgt id='scales2.01.0'>  0.768074804E+03 </wgt>
<wgt id='scales2.02.0'>  0.695105205E+03 </wgt>
</rwgt>
<scales uborns=' 0.662141159E+03'> </scales>
</event>
<event>
      5  10001  2.19289E+05  1.41506E+00  7.29735E-03  4.65497E-01
       3    -1     0     0   511     0  0.000000000E+00  0.000000000E+00  1.595154452E+02  1.595154452E+02  0.000000000E+00  0.00000E+00  9.000E+00
       2    -1     0     0   512     0  0.000000000E+00  0.000000000E+00 -1.620448024E+03  1.620448024E+03  0.000000000E+00  0.00000E+00  9.000E+00
       3     1     1     2   512     0 -2.397145721E+02 -1.050200263E+02  3.254555952E+01  2.637261751E+02  4.473129043E-06  0.00000E+00  9.000E+00
       2     1     1     2   511     0  1.817864597E+02  7.867088191E+01 -1.133834133E+03  1.151006197E+03  1.525878906E-05  0.00000E+00  9.000E+00
      22     1     1     2     0     0  5.792811240E+01  2.634914439E+01 -3.596440054E+02  3.652310970E+02  5.394796609E-06  0.00000E+00  9.000E+00
#rwgt            1          98   3.4502058272986732E-004        6024      263628           0
<rwgt>
<wgt id='central'>  0.219288578E+06 </wgt>
<wgt id='sudakovwgt'>  0.538926769E+00 </wgt>
<wgt id='scales0.50.5'>  0.272862503E+06 </wgt>
<wgt id='scales0.51.0'>  0.264729010E+06 </wgt>
<wgt id='scales1.00.5'>  0.226026402E+06 </wgt>
<wgt id='scales1.02.0'>  0.212297375E+06 </wgt>
<wgt id='scales2.01.0'>  0.184742867E+06 </wgt>
<wgt id='scales2.02.0'>  0.178852681E+06 </wgt>
</rwgt>
<scales uborns=' 0.261711896E+03'> </scales>
</event>
<event>
      5  10001  1.06411E+08  1.15878E+01  7.29735E-03  1.88638E-01
      21    -1     0     0   513   512  0.000000000E+00  0.000000000E+00  3.679539231E+02  3.679539231E+02  0.000000000E+00  0.00000E+00  9.000E+00
      -4    -1     0     0     0   513  0.000000000E+00  0.000000000E+00 -2.807316436E+01  2.807316436E+01  0.000000000E+00  0.00000E+00  9.000E+00
      22     1     1     2     0     0  1.930616061E+01  5.529160063E+00  1.891417095E+01  2.758704970E+01  3.371747881E-07  0.00000E+00  9.000E+00
      21     1     1     2   514   512 -9.196754307E+01 -1.449035940E+01  2.487581507E+02  2.656098964E+02  4.672030912E-06  0.00000E+00  9.000E+00
      -4     1     1     2     0   514  7.266138246E+01  8.961199338E+00  7.220843709E+01  1.028301414E+02  2.697398305E-06  0.00000E+00  9.000E+00
#rwgt            1         199   5.8555805454363005E-004        6024      331731           0
<rwgt>
<wgt id='central'>  0.106411181E+09 </wgt>
<wgt id='sudakovwgt'>  0.384655562E-01 </wgt>
<wgt id='scales0.50.5'>  0.122354032E+09 </wgt>
<wgt id='scales0.51.0'>  0.132732286E+09 </wgt>
<wgt id='scales1.00.5'>  0.980907909E+08 </wgt>
<wgt id='scales1.02.0'>  0.112432464E+09 </wgt>
<wgt id='scales2.01.0'>  0.873042733E+08 </wgt>
<wgt id='scales2.02.0'>  0.922445477E+08 </wgt>
</rwgt>
<scales uborns=' 0.931862478E+02'> </scales>
</event>
<event>
      5  10001  2.93012E+02  5.10821E+02  7.29735E-03  9.85885E-02
      21    -1     0     0   515   512  0.000000000E+00  0.000000000E+00  1.224494869E+03  1.224494869E+03  0.000000000E+00  0.00000E+00  9.000E+00
      -1    -1     0     0     0   511  0.000000000E+00  0.000000000E+00 -6.657776401E+02  6.657776401E+02  0.000000000E+00  0.00000E+00  9.000E+00
      -1     1     1     2     0   512  3.153022322E+00 -5.759841952E+02  8.242039288E+02  1.005524664E+03  1.078959322E-05  0.00000E+00  9.000E+00
      21     1     1     2   515   511 -1.960897714E+02  5.997116476E+02 -1.207845719E+02  6.424127735E+02  1.926327694E-05  0.00000E+00  9.000E+00
      22     1     1     2     0     0  1.929367491E+02 -2.372745240E+01 -1.447021276E+02  2.423350715E+02  8.946258087E-06  0.00000E+00  9.000E+00
#rwgt            1         196   8.7223442130885642E-005        6024      332014           0
<rwgt>
<wgt id='central'>  0.293012206E+03 </wgt>
<wgt id='sudakovwgt'>  0.647623703E-01 </wgt>
<wgt id='scales0.50.5'>  0.391309526E+03 </wgt>
<wgt id='scales0.51.0'>  0.344704966E+03 </wgt>
<wgt id='scales1.00.5'>  0.332627604E+03 </wgt>
<wgt id='scales1.02.0'>  0.260281847E+03 </wgt>
<wgt id='scales2.01.0'>  0.252240159E+03 </wgt>
<wgt id='scales2.02.0'>  0.224064320E+03 </wgt>
</rwgt>
<scales uborns=' 0.802579774E+03'> </scales>
</event>
<event>
      4  10001  4.15289E+03  8.94427E-01  7.29735E-03  7.51804E-01
      21    -1     0     0   513   512  0.000000000E+00  0.000000000E+00  2.101753745E+03  2.101753745E+03  0.000000000E+00  0.00000E+00  9.000E+00
       3    -1     0     0   514     0  0.000000000E+00  0.000000000E+00 -1.976537594E+02  1.976537594E+02  0.000000000E+00  0.00000E+00  9.000E+00
       3     1     1     2   513     0 -4.126425169E+02 -2.995846026E+02  2.488794602E+02  5.674202733E+02  3.814697266E-06  0.00000E+00  9.000E+00
      21     1     1     2   514   512  4.126425169E+02  2.995846026E+02  1.655220525E+03  1.731987231E+03  0.000000000E+00  0.00000E+00  9.000E+00
#rwgt            1         188   2.2436293798287199E-004        6024      332174           0
<rwgt>
<wgt id='central'>  0.415289295E+04 </wgt>
<wgt id='sudakovwgt'>  0.259759871E+01 </wgt>
<wgt id='scales0.50.5'>  0.556025665E+04 </wgt>
<wgt id='scales0.51.0'>  0.493232281E+04 </wgt>
<wgt id='scales1.00.5'>  0.468159427E+04 </wgt>
<wgt id='scales1.02.0'>  0.370894395E+04 </wgt>
<wgt id='scales2.01.0'>  0.354642262E+04 </wgt>
<wgt id='scales2.02.0'>  0.316730823E+04 </wgt>
</rwgt>
<scales uborns=' 0.509926250E+03'> </scales>
</event>
<event>
      5  10001  3.01394E+03  1.12319E+01  7.29735E-03  1.90100E-01
       2    -1     0     0   515     0  0.000000000E+00  0.000000000E+00  1.064589866E+03  1.064589866E+03  0.000000000E+00  0.00000E+00  9.000E+00
      21    -1     0     0   511   513  0.000000000E+00  0.000000000E+00 -4.696593935E+02  4.696593935E+02  0.000000000E+00  0.00000E+00  9.000E+00
       2     1     1     2   511     0 -4.708108386E+02  2.642315923E+02  7.149310369E+02  8.958836797E+02  2.157918644E-05  0.00000E+00  9.000E+00
      21     1     1     2   515   513  4.734685095E+02 -2.533186971E+02 -1.883871000E+02  5.690628183E+02  1.595802358E-05  0.00000E+00  9.000E+00
      22     1     1     2     0     0 -2.657670876E+00 -1.091289513E+01  6.838653543E+01  6.930276129E+01  9.536743164E-07  0.00000E+00  9.000E+00
#rwgt            1         182   6.6862480236576771E-003        6024      334335           0
<rwgt>
<wgt id='central'>  0.301393640E+04 </wgt>
<wgt id='sudakovwgt'>  0.579236591E-01 </wgt>
<wgt id='scales0.50.5'>  0.389441672E+04 </wgt>
<wgt id='scales0.51.0'>  0.357530955E+04 </wgt>
<wgt id='scales1.00.5'>  0.328294324E+04 </wgt>
<wgt id='scales1.02.0'>  0.277968968E+04 </wgt>
<wgt id='scales2.01.0'>  0.257639670E+04 </wgt>
<wgt id='scales2.02.0'>  0.237615325E+04 </wgt>
</rwgt>
<scales uborns=' 0.538404244E+03'> </scales>
</event>
<event>
      5  10001  8.19292E+02  4.59245E+02  7.29735E-03  9.99124E-02
      21    -1     0     0   512   511  0.000000000E+00  0.000000000E+00  1.504253922E+02  1.504253922E+02  0.000000000E+00  0.00000E+00  9.000E+00
       3    -1     0     0   514     0  0.000000000E+00  0.000000000E+00 -3.443498975E+03  3.443498975E+03  0.000000000E+00  0.00000E+00  9.000E+00
      22     1     1     2     0     0  1.303669058E+01 -1.375413218E+02 -3.553373748E+02  3.812508629E+02  0.000000000E+00  0.00000E+00  9.000E+00
      21     1     1     2   514   511  2.288314385E+02  6.151752640E+02 -2.234060004E+03  2.328482023E+03  0.000000000E+00  0.00000E+00  9.000E+00
       3     1     1     2   512     0 -2.418681291E+02 -4.776339422E+02 -7.036762043E+02  8.841914810E+02  2.018548058E-05  0.00000E+00  9.000E+00
#rwgt            1         188   6.0554281393071778E-004        6024      338579           0
<rwgt>
<wgt id='central'>  0.819292472E+03 </wgt>
<wgt id='sudakovwgt'>  0.228958776E-01 </wgt>
<wgt id='scales0.50.5'>  0.107035155E+04 </wgt>
<wgt id='scales0.51.0'>  0.967298299E+03 </wgt>
<wgt id='scales1.00.5'>  0.906577077E+03 </wgt>
<wgt id='scales1.02.0'>  0.743680425E+03 </wgt>
<wgt id='scales2.01.0'>  0.703151333E+03 </wgt>
<wgt id='scales2.02.0'>  0.638258255E+03 </wgt>
</rwgt>
<scales uborns=' 0.672265197E+03'> </scales>
</event>
<event>
      4  10001  1.22472E+07  8.94427E-01  7.29735E-03  7.52614E-01
      21    -1     0     0   513   515  0.000000000E+00  0.000000000E+00  8.323016497E+02  8.323016497E+02  0.000000000E+00  0.00000E+00  9.000E+00
       4    -1     0     0   511     0  0.000000000E+00  0.000000000E+00 -2.839365919E+01  2.839365919E+01  0.000000000E+00  0.00000E+00  9.000E+00
       4     1     1     2   513     0 -1.177624080E+02  6.320003807E+01  1.893110343E+02  2.317345405E+02  2.697398305E-06  0.00000E+00  9.000E+00
      21     1     1     2   511   515  1.177624080E+02 -6.320003807E+01  6.145969563E+02  6.289607684E+02  7.629394531E-06  0.00000E+00  9.000E+00
#rwgt            1         189   5.3875889058195862E-004        6024      338741           0
<rwgt>
<wgt id='central'>  0.122472337E+08 </wgt>
<wgt id='sudakovwgt'>  0.974826247E+01 </wgt>
<wgt id='scales0.50.5'>  0.146878894E+08 </wgt>
<wgt id='scales0.51.0'>  0.150840496E+08 </wgt>
<wgt id='scales1.00.5'>  0.119255454E+08 </wgt>
<wgt id='scales1.02.0'>  0.123763153E+08 </wgt>
<wgt id='scales2.01.0'>  0.101507387E+08 </wgt>
<wgt id='scales2.02.0'>  0.102577522E+08 </wgt>
</rwgt>
<scales uborns=' 0.133649652E+03'> </scales>
</event>
<event>
      4  10001  6.56556E+01  8.94427E-01  7.29735E-03  7.52395E-01
      21    -1     0     0   512   514  0.000000000E+00  0.000000000E+00  5.048362417E+02  5.048362417E+02  0.000000000E+00  0.00000E+00  9.000E+00
       2    -1     0     0   513     0  0.000000000E+00  0.000000000E+00 -2.762442839E+03  2.762442839E+03  0.000000000E+00  0.00000E+00  9.000E+00
       2     1     1     2   512     0 -4.001030059E+02  9.637231818E+02 -1.893709092E+03  2.162169954E+03  2.157918644E-05  0.00000E+00  9.000E+00
      21     1     1     2   513   514  4.001030059E+02 -9.637231818E+02 -3.638975053E+02  1.105109126E+03  1.078959322E-05  0.00000E+00  9.000E+00
#rwgt            1         187   1.3398684390181130E-002        6024      374849           0
<rwgt>
<wgt id='central'>  0.656555633E+02 </wgt>
<wgt id='sudakovwgt'>  0.278212420E+02 </wgt>
<wgt id='scales0.50.5'>  0.877210325E+02 </wgt>
<wgt id='scales0.51.0'>  0.768504486E+02 </wgt>
<wgt id='scales1.00.5'>  0.749426597E+02 </wgt>
<wgt id='scales1.02.0'>  0.580063487E+02 </wgt>
<wgt id='scales2.01.0'>  0.567621384E+02 </wgt>
<wgt id='scales2.02.0'>  0.501490260E+02 </wgt>
</rwgt>
<scales uborns=' 0.104347726E+04'> </scales>
</event>
<event>
      5  10001  4.13800E+00  5.59807E+01  7.29735E-03  1.36332E-01
       2    -1     0     0   515     0  0.000000000E+00  0.000000000E+00  1.319396450E+03  1.319396450E+03  0.000000000E+00  0.00000E+00  9.000E+00
      21    -1     0     0   512   515  0.000000000E+00  0.000000000E+00 -2.355582310E+03  2.355582310E+03  0.000000000E+00  0.00000E+00  9.000E+00
       2     1     1     2   511     0 -8.155581145E+02 -4.358344239E+02 -1.677890402E+02  9.398084088E+02  1.452593442E-05  0.00000E+00  9.000E+00
      21     1     1     2   512   511  1.526910508E+03  8.467004921E+02 -7.686177169E+02  1.907650549E+03  1.078959322E-05  0.00000E+00  9.000E+00
      22     1     1     2     0     0 -7.113523935E+02 -4.108660682E+02 -9.977910288E+01  8.275198022E+02  1.095688371E-05  0.00000E+00  9.000E+00
#rwgt            1         182   1.6430009993230739E-003        6024      381160           0
<rwgt>
<wgt id='central'>  0.413799729E+01 </wgt>
<wgt id='sudakovwgt'>  0.104136970E-02 </wgt>
<wgt id='scales0.50.5'>  0.565735738E+01 </wgt>
<wgt id='scales0.51.0'>  0.480012347E+01 </wgt>
<wgt id='scales1.00.5'>  0.487698806E+01 </wgt>
<wgt id='scales1.02.0'>  0.355319002E+01 </wgt>
<wgt id='scales2.01.0'>  0.360517021E+01 </wgt>
<wgt id='scales2.02.0'>  0.309566331E+01 </wgt>
</rwgt>
<scales uborns=' 0.174644612E+04'> </scales>
</event>
<event>
      5  10001  1.50528E+02  1.21950E+02  7.29735E-03  1.20072E-01
       2    -1     0     0   511     0  0.000000000E+00  0.000000000E+00  2.519241342E+03  2.519241342E+03  0.000000000E+00  0.00000E+00  9.000E+00
      21    -1     0     0   513   514  0.000000000E+00  0.000000000E+00 -3.608479935E+02  3.608479935E+02  0.000000000E+00  0.00000E+00  9.000E+00
       2     1     1     2   513     0 -3.277782657E+02 -8.415975981E+02  1.441109190E+03  1.700741252E+03  2.642899792E-05  0.00000E+00  9.000E+00
      21     1     1     2   511   514  3.239697940E+02  7.871311335E+02  5.756980448E+02  1.027599186E+03  1.321449896E-05  0.00000E+00  9.000E+00
      22     1     1     2     0     0  3.808471707E+00  5.446646453E+01  1.415861130E+02  1.517488965E+02  1.907348633E-06  0.00000E+00  9.000E+00
#rwgt            1         182   1.0710416482536195E-002        6024      383360           0
<rwgt>
<wgt id='central'>  0.150527883E+03 </wgt>
<wgt id='sudakovwgt'>  0.589561619E-03 </wgt>
<wgt id='scales0.50.5'>  0.198673728E+03 </wgt>
<wgt id='scales0.51.0'>  0.176683063E+03 </wgt>
<wgt id='scales1.00.5'>  0.169263303E+03 </wgt>
<wgt id='scales1.02.0'>  0.134806478E+03 </wgt>
<wgt id='scales2.01.0'>  0.129831827E+03 </wgt>
<wgt id='scales2.02.0'>  0.116271865E+03 </wgt>
</rwgt>
<scales uborns=' 0.901330089E+03'> </scales>
</event>
<event>
      5  10001  1.74572E+01  1.66863E+03  7.29735E-03  8.59534E-02
       2    -1     0     0   513     0  0.000000000E+00  0.000000000E+00  1.801876039E+03  1.801876039E+03  0.000000000E+00  0.00000E+00  9.000E+00
       1    -1     0     0   512     0  0.000000000E+00  0.000000000E+00 -1.004833872E+03  1.004833872E+03  0.000000000E+00  0.00000E+00  9.000E+00
      22     1     1     2     0     0 -9.535200524E+02  7.154992273E+02  4.319942787E+02  1.267974247E+03  2.089395742E-05  0.00000E+00  9.000E+00
       1     1     1     2   513     0  6.194282518E+02  6.190387853E+01  2.973375244E+02  6.898790131E+02  1.662787988E-05  0.00000E+00  9.000E+00
       2     1     1     2   512     0  3.340918006E+02 -7.774031058E+02  6.771036403E+01  8.488566508E+02  3.693564745E-06  0.00000E+00  9.000E+00
#rwgt            1          92   8.8936607387347878E-004        6024      384260           0
<rwgt>
<wgt id='central'>  0.174571928E+02 </wgt>
<wgt id='sudakovwgt'>  0.722905224E-03 </wgt>
<wgt id='scales0.50.5'>  0.222499161E+02 </wgt>
<wgt id='scales0.51.0'>  0.203454295E+02 </wgt>
<wgt id='scales1.00.5'>  0.190913264E+02 </wgt>
<wgt id='scales1.02.0'>  0.160488950E+02 </wgt>
<wgt id='scales2.01.0'>  0.151484582E+02 </wgt>
<wgt id='scales2.02.0'>  0.139264037E+02 </wgt>
</rwgt>
<scales uborns=' 0.132656392E+04'> </scales>
</event>
<event>
      5  10001  2.22037E+05  1.46433E+01  7.29735E-03  1.78374E-01
       1    -1     0     0   511     0  0.000000000E+00  0.000000000E+00  9.226271461E+02  9.226271461E+02  0.000000000E+00  0.00000E+00  9.000E+00
      -5    -1     0     0     0   511  0.000000000E+00  0.000000000E+00 -1.637757040E+02  1.637757040E+02  0.000000000E+00  0.00000E+00  9.000E+00
       1     1     1     2   512     0 -2.105395356E+02  1.544853785E+02  7.816732566E+02  8.241393743E+02  1.078959322E-05  0.00000E+00  9.000E+00
      22     1     1     2     0     0  5.396807809E+01 -3.719416205E+01 -2.695145302E+00  6.559895542E+01  1.617033478E-06  0.00000E+00  9.000E+00
      -5     1     1     2     0   512  1.565714575E+02 -1.172912164E+02 -2.012666930E+01  1.966645204E+02  3.754619538E-06  0.00000E+00  9.000E+00
#rwgt            1         144   5.6090239940290150E-005        6024      384483           0
<rwgt>
<wgt id='central'>  0.222036998E+06 </wgt>
<wgt id='sudakovwgt'>  0.414090675E-01 </wgt>
<wgt id='scales0.50.5'>  0.253276310E+06 </wgt>
<wgt id='scales0.51.0'>  0.268061444E+06 </wgt>
<wgt id='scales1.00.5'>  0.209790379E+06 </wgt>
<wgt id='scales1.02.0'>  0.229950383E+06 </wgt>
<wgt id='scales2.01.0'>  0.187049325E+06 </wgt>
<wgt id='scales2.02.0'>  0.193715750E+06 </wgt>
</rwgt>
<scales uborns=' 0.261166854E+03'> </scales>
</event>
<event>
      5  10001  2.67131E+02  1.61440E+02  7.29735E-03  1.15142E-01
       1    -1     0     0   511     0  0.000000000E+00  0.000000000E+00  7.580632048E+02  7.580632048E+02  0.000000000E+00  0.00000E+00  9.000E+00
       2    -1     0     0   513     0  0.000000000E+00  0.000000000E+00 -1.221602806E+03  1.221602806E+03  0.000000000E+00  0.00000E+00  9.000E+00
       1     1     1     2   513     0  1.865469134E+02  7.853630905E+02  2.906298405E+02  8.579397642E+02  3.814697266E-06  0.00000E+00  9.000E+00
      22     1     1     2     0     0 -1.978518459E+02 -4.340473626E+02 -4.709319778E+02  6.703129072E+02  1.321449896E-05  0.00000E+00  9.000E+00
       2     1     1     2   511     0  1.130493250E+01 -3.513157279E+02 -2.832374642E+02  4.514133397E+02  6.607249480E-06  0.00000E+00  9.000E+00
#rwgt            1          96   1.4829163457308204E-003        6024      385476           0
<rwgt>
<wgt id='central'>  0.267130875E+03 </wgt>
<wgt id='sudakovwgt'>  0.171378715E-04 </wgt>
<wgt id='scales0.50.5'>  0.335928502E+03 </wgt>
<wgt id='scales0.51.0'>  0.314158354E+03 </wgt>
<wgt id='scales1.00.5'>  0.285642306E+03 </wgt>
<wgt id='scales1.02.0'>  0.250719853E+03 </wgt>
<wgt id='scales2.01.0'>  0.230022269E+03 </wgt>
<wgt id='scales2.02.0'>  0.215890891E+03 </wgt>
</rwgt>
<scales uborns=' 0.815559513E+03'> </scales>
</event>
<event>
      5  10001  4.51364E+04  1.40468E+01  7.29735E-03  1.80112E-01
       2    -1     0     0   514     0  0.000000000E+00  0.000000000E+00  1.886043804E+03  1.886043804E+03  0.000000000E+00  0.00000E+00  9.000E+00
      21    -1     0     0   512   514  0.000000000E+00  0.000000000E+00 -6.542922218E+01  6.542922218E+01  0.000000000E+00  0.00000E+00  9.000E+00
       2     1     1     2   511     0  9.917688846E+01 -3.281433749E+02  9.674627276E+02  1.026400633E+03  1.525878906E-05  0.00000E+00  9.000E+00
      21     1     1     2   512   511 -1.111698594E+02  3.208302638E+02  8.391351576E+02  9.052284841E+02  1.078959322E-05  0.00000E+00  9.000E+00
      22     1     1     2     0     0  1.199297093E+01  7.313111101E+00  1.401669625E+01  1.984390887E+01  4.129530925E-07  0.00000E+00  9.000E+00
#rwgt            1         182   1.2645076315775343E-002        6024      396275           0
<rwgt>
<wgt id='central'>  0.451363878E+05 </wgt>
<wgt id='sudakovwgt'>  0.338726074E-01 </wgt>
<wgt id='scales0.50.5'>  0.564830775E+05 </wgt>
<wgt id='scales0.51.0'>  0.541175904E+05 </wgt>
<wgt id='scales1.00.5'>  0.471093180E+05 </wgt>
<wgt id='scales1.02.0'>  0.431625375E+05 </wgt>
<wgt id='scales2.01.0'>  0.382416892E+05 </wgt>
<wgt id='scales2.02.0'>  0.365693397E+05 </wgt>
</rwgt>
<scales uborns=' 0.341101877E+03'> </scales>
</event>
<event>
      5  10001  4.14259E+01  2.79167E+01  7.29735E-03  1.55243E-01
      21    -1     0     0   511   512  0.000000000E+00  0.000000000E+00  1.416525366E+03  1.416525366E+03  0.000000000E+00  0.00000E+00  9.000E+00
       2    -1     0     0   512     0  0.000000000E+00  0.000000000E+00 -1.270740644E+03  1.270740644E+03  0.000000000E+00  0.00000E+00  9.000E+00
       2     1     1     2   513     0  3.418252976E+02  1.072065849E+03 -6.182868913E+02  1.283919155E+03  1.078959322E-05  0.00000E+00  9.000E+00
      21     1     1     2   511   513 -3.304111875E+02 -1.078035198E+03  7.883929609E+02  1.375825172E+03  2.642899792E-05  0.00000E+00  9.000E+00
      22     1     1     2     0     0 -1.141411004E+01  5.969349818E+00 -2.432134762E+01  2.752168228E+01  0.000000000E+00  0.00000E+00  9.000E+00
#rwgt            1         187   5.7715051102867985E-003        6024      398883           0
<rwgt>
<wgt id='central'>  0.414258735E+02 </wgt>
<wgt id='sudakovwgt'>  0.656414359E-02 </wgt>
<wgt id='scales0.50.5'>  0.552568107E+02 </wgt>
<wgt id='scales0.51.0'>  0.484158968E+02 </wgt>
<wgt id='scales1.00.5'>  0.472791637E+02 </wgt>
<wgt id='scales1.02.0'>  0.366263746E+02 </wgt>
<wgt id='scales2.01.0'>  0.358608276E+02 </wgt>
<wgt id='scales2.02.0'>  0.317060609E+02 </wgt>
</rwgt>
<scales uborns=' 0.113313600E+04'> </scales>
</event>
<event>
      5  10001  3.89956E+04  1.09810E+01  7.29735E-03  1.91173E-01
       2    -1     0     0   513     0  0.000000000E+00  0.000000000E+00  3.547720645E+03  3.547720645E+03  0.000000000E+00  0.00000E+00  9.000E+00
      21    -1     0     0   514   515  0.000000000E+00  0.000000000E+00 -9.773093087E+01  9.773093087E+01  0.000000000E+00  0.00000E+00  9.000E+00
      22     1     1     2     0     0  3.404934863E+01  1.574855444E+02  1.448367677E+03  1.457302296E+03  0.000000000E+00  0.00000E+00  9.000E+00
      21     1     1     2   513   515 -8.310436884E+01 -3.395335648E+02  2.582358609E+02  4.345976733E+02  5.394796609E-06  0.00000E+00  9.000E+00
       2     1     1     2   514     0  4.905502021E+01  1.820480204E+02  1.743386176E+03  1.753551606E+03  2.157918644E-05  0.00000E+00  9.000E+00
#rwgt            1         182   3.8129592366563846E-002        6024      400034           0
<rwgt>
<wgt id='central'>  0.389955616E+05 </wgt>
<wgt id='sudakovwgt'>  0.102321513E-02 </wgt>
<wgt id='scales0.50.5'>  0.520186821E+05 </wgt>
<wgt id='scales0.51.0'>  0.467264522E+05 </wgt>
<wgt id='scales1.00.5'>  0.434122349E+05 </wgt>
<wgt id='scales1.02.0'>  0.351883075E+05 </wgt>
<wgt id='scales2.01.0'>  0.330556181E+05 </wgt>
<wgt id='scales2.02.0'>  0.298282692E+05 </wgt>
</rwgt>
<scales uborns=' 0.349581367E+03'> </scales>
</event>
<event>
      5  10001  6.26337E+03  8.78338E+01  7.29735E-03  1.26416E-01
       2    -1     0     0   513     0  0.000000000E+00  0.000000000E+00  3.471777075E+03  3.471777075E+03  0.000000000E+00  0.00000E+00  9.000E+00
      21    -1     0     0   512   513  0.000000000E+00  0.000000000E+00 -2.148479612E+02  2.148479612E+02  0.000000000E+00  0.00000E+00  9.000E+00
       2     1     1     2   511     0 -4.616173368E+02 -2.221800557E+02  2.136925423E+03  2.197476918E+03  0.000000000E+00  0.00000E+00  9.000E+00
      21     1     1     2   512   511  4.165150038E+02  1.468105616E+02  8.414949738E+01  4.495767201E+02  1.408083254E-05  0.00000E+00  9.000E+00
      22     1     1     2     0     0  4.510233302E+01  7.536949418E+01  1.035854193E+03  1.039571398E+03  2.157918644E-05  0.00000E+00  9.000E+00
#rwgt            1         182   1.3971447530236707E-002        6024      404239           0
<rwgt>
<wgt id='central'>  0.626337250E+04 </wgt>
<wgt id='sudakovwgt'>  0.246335862E-01 </wgt>
<wgt id='scales0.50.5'>  0.824839832E+04 </wgt>
<wgt id='scales0.51.0'>  0.745054578E+04 </wgt>
<wgt id='scales1.00.5'>  0.693409209E+04 </wgt>
<wgt id='scales1.02.0'>  0.568638848E+04 </wgt>
<wgt id='scales2.01.0'>  0.534169631E+04 </wgt>
<wgt id='scales2.02.0'>  0.484961935E+04 </wgt>
</rwgt>
<scales uborns=' 0.475678142E+03'> </scales>
</event>
<event>
      5  10001  7.12673E+03  2.13399E+00  7.29735E-03  3.50421E-01
      21    -1     0     0   511   512  0.000000000E+00  0.000000000E+00  5.576513734E+02  5.576513734E+02  0.000000000E+00  0.00000E+00  9.000E+00
       2    -1     0     0   512     0  0.000000000E+00  0.000000000E+00 -5.163907149E+02  5.163907149E+02  0.000000000E+00  0.00000E+00  9.000E+00
       2     1     1     2   514     0  4.378158211E+02  6.797317230E+00 -2.312582693E+02  4.951861103E+02  9.725607898E-06  0.00000E+00  9.000E+00
      21     1     1     2   511   514 -4.653528712E+02 -5.243857378E+00  2.879397326E+02  5.472568706E+02  5.394796609E-06  0.00000E+00  9.000E+00
      22     1     1     2     0     0  2.753705009E+01 -1.553459852E+00 -1.542080486E+01  3.159910738E+01  3.371747881E-07  0.00000E+00  9.000E+00
#rwgt            1         187   4.1312295466817599E-003        6024      405241           0
<rwgt>
<wgt id='central'>  0.712672883E+04 </wgt>
<wgt id='sudakovwgt'>  0.315161136E+00 </wgt>
<wgt id='scales0.50.5'>  0.912481045E+04 </wgt>
<wgt id='scales0.51.0'>  0.848176111E+04 </wgt>
<wgt id='scales1.00.5'>  0.766704692E+04 </wgt>
<wgt id='scales1.02.0'>  0.664808364E+04 </wgt>
<wgt id='scales2.01.0'>  0.607548389E+04 </wgt>
<wgt id='scales2.02.0'>  0.566744146E+04 </wgt>
</rwgt>
<scales uborns=' 0.465411227E+03'> </scales>
</event>
<event>
      5  10001  8.99800E+03  5.92003E+00  7.29735E-03  2.26380E-01
      21    -1     0     0   513   512  0.000000000E+00  0.000000000E+00  1.034009317E+02  1.034009317E+02  0.000000000E+00  0.00000E+00  9.000E+00
       2    -1     0     0   514     0  0.000000000E+00  0.000000000E+00 -2.229450409E+03  2.229450409E+03  0.000000000E+00  0.00000E+00  9.000E+00
       2     1     1     2   513     0 -3.699932527E+02 -2.463688211E+02 -6.516208983E+02  7.887980718E+02  1.321449896E-05  0.00000E+00  9.000E+00
      21     1     1     2   514   512  3.745198533E+02  2.501841311E+02 -1.430541753E+03  1.499768958E+03  2.642899792E-05  0.00000E+00  9.000E+00
      22     1     1     2     0     0 -4.526600656E+00 -3.815309963E+00 -4.388682648E+01  4.428431147E+01  6.743495762E-07  0.00000E+00  9.000E+00
#rwgt            1         187   4.4819131021158762E-003        6024      408204           0
<rwgt>
<wgt id='central'>  0.899799648E+04 </wgt>
<wgt id='sudakovwgt'>  0.988645967E-01 </wgt>
<wgt id='scales0.50.5'>  0.114887030E+05 </wgt>
<wgt id='scales0.51.0'>  0.107185021E+05 </wgt>
<wgt id='scales1.00.5'>  0.964457056E+04 </wgt>
<wgt id='scales1.02.0'>  0.840612516E+04 </wgt>
<wgt id='scales2.01.0'>  0.766493311E+04 </wgt>
<wgt id='scales2.02.0'>  0.716074539E+04 </wgt>
</rwgt>
<scales uborns=' 0.447446610E+03'> </scales>
</event>
<event>
      5  10001  7.95326E+00  3.98157E+01  7.29735E-03  1.44964E-01
       2    -1     0     0   511     0  0.000000000E+00  0.000000000E+00  1.188340448E+03  1.188340448E+03  0.000000000E+00  0.00000E+00  9.000E+00
       2    -1     0     0   512     0  0.000000000E+00  0.000000000E+00 -2.856197407E+03  2.856197407E+03  0.000000000E+00  0.00000E+00  9.000E+00
       2     1     1     2   511     0  1.405068538E+03  6.231670831E+02 -1.946541793E+03  2.480237844E+03  2.157918644E-05  0.00000E+00  9.000E+00
       2     1     1     2   512     0 -1.151455545E+03 -5.229611424E+02  1.990517081E+02  1.280218658E+03  3.270421638E-05  0.00000E+00  9.000E+00
      22     1     1     2     0     0 -2.536129928E+02 -1.002059407E+02  7.963312625E+01  2.840813536E+02  7.325311420E-06  0.00000E+00  9.000E+00
#rwgt            1          97   4.0307141799421076E-003        6024      409982           0
<rwgt>
<wgt id='central'>  0.795325915E+01 </wgt>
<wgt id='sudakovwgt'>  0.318844246E-02 </wgt>
<wgt id='scales0.50.5'>  0.103234927E+02 </wgt>
<wgt id='scales0.51.0'>  0.924549884E+01 </wgt>
<wgt id='scales1.00.5'>  0.888058320E+01 </wgt>
<wgt id='scales1.02.0'>  0.717320209E+01 </wgt>
<wgt id='scales2.01.0'>  0.691651838E+01 </wgt>
<wgt id='scales2.02.0'>  0.623814437E+01 </wgt>
</rwgt>
<scales uborns=' 0.153783233E+04'> </scales>
</event>
<event>
      5  10001  4.85538E+04  2.77511E+01  7.29735E-03  1.55428E-01
       2    -1     0     0   514     0  0.000000000E+00  0.000000000E+00  2.143032677E+03  2.143032677E+03  0.000000000E+00  0.00000E+00  9.000E+00
      21    -1     0     0   511   514  0.000000000E+00  0.000000000E+00 -1.792625607E+02  1.792625607E+02  0.000000000E+00  0.00000E+00  9.000E+00
       2     1     1     2   513     0 -2.128924158E+02  2.459539489E+02  1.707424854E+03  1.738135829E+03  3.051757812E-05  0.00000E+00  9.000E+00
      21     1     1     2   511   513  2.167005045E+02 -2.734425175E+02  2.352421723E+01  3.496903027E+02  8.189947146E-06  0.00000E+00  9.000E+00
      22     1     1     2     0     0 -3.808088683E+00  2.748856855E+01  2.328210444E+02  2.344691060E+02  2.697398305E-06  0.00000E+00  9.000E+00
#rwgt            1         182   1.3758422476270293E-002        6024      441017           0
<rwgt>
<wgt id='central'>  0.485537992E+05 </wgt>
<wgt id='sudakovwgt'>  0.274584414E-01 </wgt>
<wgt id='scales0.50.5'>  0.631606963E+05 </wgt>
<wgt id='scales0.51.0'>  0.582327540E+05 </wgt>
<wgt id='scales1.00.5'>  0.526626616E+05 </wgt>
<wgt id='scales1.02.0'>  0.448919395E+05 </wgt>
<wgt id='scales2.01.0'>  0.411266495E+05 </wgt>
<wgt id='scales2.02.0'>  0.380249344E+05 </wgt>
</rwgt>
<scales uborns=' 0.336948420E+03'> </scales>
</event>
<event>
      5  10001  7.26129E+04  2.24603E+01  7.29735E-03  1.62316E-01
      -2    -1     0     0     0   511  0.000000000E+00  0.000000000E+00  1.089078143E+02  1.089078143E+02  0.000000000E+00  0.00000E+00  9.000E+00
       2    -1     0     0   511     0  0.000000000E+00  0.000000000E+00 -1.369582097E+03  1.369582097E+03  0.000000000E+00  0.00000E+00  9.000E+00
      22     1     1     2     0     0 -1.098801151E+01  8.990430898E+00 -5.081525080E+01  5.276129224E+01  0.000000000E+00  0.00000E+00  9.000E+00
      -2     1     1     2     0   512  2.356185232E+02 -2.089681314E+02 -2.024674819E+02  3.744019893E+02  4.672030912E-06  0.00000E+00  9.000E+00
       2     1     1     2   512     0 -2.246305117E+02  1.999777005E+02 -1.007391550E+03  1.051326629E+03  1.868812365E-05  0.00000E+00  9.000E+00
#rwgt            1          72   5.1916075594201185E-004        6024      443080           0
<rwgt>
<wgt id='central'>  0.726128904E+05 </wgt>
<wgt id='sudakovwgt'>  0.109653541E-02 </wgt>
<wgt id='scales0.50.5'>  0.891639402E+05 </wgt>
<wgt id='scales0.51.0'>  0.872362269E+05 </wgt>
<wgt id='scales1.00.5'>  0.742174725E+05 </wgt>
<wgt id='scales1.02.0'>  0.709093772E+05 </wgt>
<wgt id='scales2.01.0'>  0.614187717E+05 </wgt>
<wgt id='scales2.02.0'>  0.599778669E+05 </wgt>
</rwgt>
<scales uborns=' 0.314947605E+03'> </scales>
</event>
<event>
      5  10001  4.92665E+03  2.42229E+01  7.29735E-03  1.59785E-01
      -1    -1     0     0     0   511  0.000000000E+00  0.000000000E+00  1.550644421E+02  1.550644421E+02  0.000000000E+00  0.00000E+00  9.000E+00
       2    -1     0     0   511     0  0.000000000E+00  0.000000000E+00 -2.616328451E+03  2.616328451E+03  0.000000000E+00  0.00000E+00  9.000E+00
      22     1     1     2     0     0 -4.877246437E+01  1.772421520E+02 -7.444298527E+02  7.667915880E+02  1.868812365E-05  0.00000E+00  9.000E+00
      -1     1     1     2     0   513  1.393687677E+02 -4.752738398E+02 -3.595555019E+02  6.120367923E+02  6.607249480E-06  0.00000E+00  9.000E+00
       2     1     1     2   513     0 -9.059630329E+01  2.980316877E+02 -1.357278654E+03  1.392564513E+03  0.000000000E+00  0.00000E+00  9.000E+00
#rwgt            1         161   7.2784454505488529E-004        6024      448395           0
<rwgt>
<wgt id='central'>  0.492664836E+04 </wgt>
<wgt id='sudakovwgt'>  0.977071081E-03 </wgt>
<wgt id='scales0.50.5'>  0.628687652E+04 </wgt>
<wgt id='scales0.51.0'>  0.585509192E+04 </wgt>
<wgt id='scales1.00.5'>  0.528996652E+04 </wgt>
<wgt id='scales1.02.0'>  0.460229115E+04 </wgt>
<wgt id='scales2.01.0'>  0.420490548E+04 </wgt>
<wgt id='scales2.02.0'>  0.392806456E+04 </wgt>
</rwgt>
<scales uborns=' 0.495387779E+03'> </scales>
</event>
<event>
      5  10001  2.37800E+00  3.51877E+03  7.29735E-03  7.95482E-02
       1    -1     0     0   513     0  0.000000000E+00  0.000000000E+00  1.227045248E+03  1.227045248E+03  0.000000000E+00  0.00000E+00  9.000E+00
       2    -1     0     0   512     0  0.000000000E+00  0.000000000E+00 -3.124257063E+03  3.124257063E+03  0.000000000E+00  0.00000E+00  9.000E+00
      22     1     1     2     0     0 -1.236121137E+02  2.752848994E+01 -2.716164459E+03  2.719115139E+03  0.000000000E+00  0.00000E+00  9.000E+00
       2     1     1     2   513     0  1.355098000E+02 -4.147369250E+02 -2.446561626E+02  5.002262096E+02  3.063655549E-05  0.00000E+00  9.000E+00
       1     1     1     2   512     0 -1.189768631E+01  3.872084351E+02  1.063608806E+03  1.131960962E+03  2.157918644E-05  0.00000E+00  9.000E+00
#rwgt            1          96   1.7270337716925417E-003        6024      455371           0
<rwgt>
<wgt id='central'>  0.237799925E+01 </wgt>
<wgt id='sudakovwgt'>  0.460524829E-03 </wgt>
<wgt id='scales0.50.5'>  0.311787060E+01 </wgt>
<wgt id='scales0.51.0'>  0.275348308E+01 </wgt>
<wgt id='scales1.00.5'>  0.269269724E+01 </wgt>
<wgt id='scales1.02.0'>  0.211665196E+01 </wgt>
<wgt id='scales2.01.0'>  0.207504829E+01 </wgt>
<wgt id='scales2.02.0'>  0.184699538E+01 </wgt>
</rwgt>
<scales uborns=' 0.195349794E+04'> </scales>
</event>
<event>
      5  10001  3.90995E+00  9.35780E-01  7.29735E-03  7.08291E-01
      -2    -1     0     0     0   511  0.000000000E+00  0.000000000E+00  1.027880904E+03  1.027880904E+03  0.000000000E+00  0.00000E+00  9.000E+00
       1    -1     0     0   511     0  0.000000000E+00  0.000000000E+00 -3.477994534E+03  3.477994534E+03  0.000000000E+00  0.00000E+00  9.000E+00
       1     1     1     2   512     0  1.176278451E+03  1.317561429E+03 -2.029124991E+03  2.690157494E+03  5.285799584E-05  0.00000E+00  9.000E+00
      -2     1     1     2     0   512 -6.558866209E+02 -7.351343256E+02 -2.343944225E+02  1.012694663E+03  2.382277679E-05  0.00000E+00  9.000E+00
      22     1     1     2     0     0 -5.203918301E+02 -5.824271033E+02 -1.865942163E+02  8.030232805E+02  1.206313194E-05  0.00000E+00  9.000E+00
#rwgt            1         165   5.5806145309310266E-005        6024      455431           0
<rwgt>
<wgt id='central'>  0.390994958E+01 </wgt>
<wgt id='sudakovwgt'>  0.277223499E+01 </wgt>
<wgt id='scales0.50.5'>  0.528154500E+01 </wgt>
<wgt id='scales0.51.0'>  0.453474237E+01 </wgt>
<wgt id='scales1.00.5'>  0.455385889E+01 </wgt>
<wgt id='scales1.02.0'>  0.339069177E+01 </wgt>
<wgt id='scales2.01.0'>  0.340702812E+01 </wgt>
<wgt id='scales2.02.0'>  0.295456009E+01 </wgt>
</rwgt>
<scales uborns=' 0.176623883E+04'> </scales>
</event>
<event>
      5  10001  4.41465E+03  8.78589E+01  7.29735E-03  1.26410E-01
       1    -1     0     0   512     0  0.000000000E+00  0.000000000E+00  9.422043256E+02  9.422043256E+02  0.000000000E+00  0.00000E+00  9.000E+00
       1    -1     0     0   513     0  0.000000000E+00  0.000000000E+00 -1.445681266E+03  1.445681266E+03  0.000000000E+00  0.00000E+00  9.000E+00
       1     1     1     2   513     0  1.374613176E+01 -5.489355452E+02  7.928705416E+02  9.644495242E+02  0.000000000E+00  0.00000E+00  9.000E+00
       1     1     1     2   512     0 -8.656650804E+00  4.612242268E+02 -8.364656920E+02  9.552369229E+02  1.868812365E-05  0.00000E+00  9.000E+00
      22     1     1     2     0     0 -5.089480961E+00  8.771131842E+01 -4.598817898E+02  4.681991444E+02  0.000000000E+00  0.00000E+00  9.000E+00
#rwgt            1          91   3.5933785961961675E-004        6024      663426           0
<rwgt>
<wgt id='central'>  0.441465459E+04 </wgt>
<wgt id='sudakovwgt'>  0.222162355E-01 </wgt>
<wgt id='scales0.50.5'>  0.567523459E+04 </wgt>
<wgt id='scales0.51.0'>  0.524442202E+04 </wgt>
<wgt id='scales1.00.5'>  0.477729944E+04 </wgt>
<wgt id='scales1.02.0'>  0.409868333E+04 </wgt>
<wgt id='scales2.01.0'>  0.376922653E+04 </wgt>
<wgt id='scales2.02.0'>  0.349945431E+04 </wgt>
</rwgt>
<scales uborns=' 0.504675096E+03'> </scales>
</event>
<event>
      5  10001  3.19236E+06  1.01077E+02  7.29735E-03  1.23619E-01
       1    -1     0     0   513     0  0.000000000E+00  0.000000000E+00  1.716009084E+02  1.716009084E+02  0.000000000E+00  0.00000E+00  9.000E+00
      21    -1     0     0   511   514  0.000000000E+00  0.000000000E+00 -2.272628658E+02  2.272628658E+02  0.000000000E+00  0.00000E+00  9.000E+00
       1     1     1     2   511     0  1.019466117E+02  7.682986799E+01  9.155132759E-01  1.276588360E+02  1.203678133E-06  0.00000E+00  9.000E+00
      21     1     1     2   513   514 -1.402740314E+02 -5.620908934E+01 -1.209093742E+02  1.935338275E+02  1.348699152E-06  0.00000E+00  9.000E+00
      22     1     1     2     0     0  3.832741971E+01 -2.062077865E+01  6.433190356E+01  7.767111065E+01  9.536743164E-07  0.00000E+00  9.000E+00
#rwgt            1         181   1.6100214998022904E-003        6024      664463           0
<rwgt>
<wgt id='central'>  0.319236385E+07 </wgt>
<wgt id='sudakovwgt'>  0.235993379E-01 </wgt>
<wgt id='scales0.50.5'>  0.395150197E+07 </wgt>
<wgt id='scales0.51.0'>  0.390376359E+07 </wgt>
<wgt id='scales1.00.5'>  0.323139876E+07 </wgt>
<wgt id='scales1.02.0'>  0.313627586E+07 </wgt>
<wgt id='scales2.01.0'>  0.266127722E+07 </wgt>
<wgt id='scales2.02.0'>  0.261452326E+07 </wgt>
</rwgt>
<scales uborns=' 0.167273018E+03'> </scales>
</event>
<event>
      5  10001  2.37180E+01  9.87966E+00  7.29735E-03  1.96367E-01
       1    -1     0     0   512     0  0.000000000E+00  0.000000000E+00  1.290649379E+03  1.290649379E+03  0.000000000E+00  0.00000E+00  9.000E+00
      -2    -1     0     0     0   512  0.000000000E+00  0.000000000E+00 -1.228427188E+03  1.228427188E+03  0.000000000E+00  0.00000E+00  9.000E+00
       1     1     1     2   513     0 -8.056172569E-01  1.251810246E+03  1.466220505E+02  1.260368029E+03  2.979373808E-05  0.00000E+00  9.000E+00
      -2     1     1     2     0   513  1.446530061E+00 -1.244718135E+03 -7.508233424E+01  1.246981429E+03  2.634282554E-05  0.00000E+00  9.000E+00
      22     1     1     2     0     0 -6.409128039E-01 -7.092111280E+00 -9.317525458E+00  1.172710929E+01  2.384185791E-07  0.00000E+00  9.000E+00
#rwgt            1         141   8.1979947118327283E-005        6024      664587           0
<rwgt>
<wgt id='central'>  0.237179551E+02 </wgt>
<wgt id='sudakovwgt'>  0.111238804E-03 </wgt>
<wgt id='scales0.50.5'>  0.305393404E+02 </wgt>
<wgt id='scales0.51.0'>  0.276696064E+02 </wgt>
<wgt id='scales1.00.5'>  0.261778959E+02 </wgt>
<wgt id='scales1.02.0'>  0.216136105E+02 </wgt>
<wgt id='scales2.01.0'>  0.205637321E+02 </wgt>
<wgt id='scales2.02.0'>  0.187392063E+02 </wgt>
</rwgt>
<scales uborns=' 0.125382598E+04'> </scales>
</event>
<event>
      5  10001  6.24946E+01  3.96087E+02  7.29735E-03  1.01814E-01
       1    -1     0     0   512     0  0.000000000E+00  0.000000000E+00  7.561106835E+02  7.561106835E+02  0.000000000E+00  0.00000E+00  9.000E+00
       2    -1     0     0   511     0  0.000000000E+00  0.000000000E+00 -1.645676617E+03  1.645676617E+03  0.000000000E+00  0.00000E+00  9.000E+00
       1     1     1     2   511     0  7.699845996E+02  5.656724363E+02 -4.313894576E+01  9.564112910E+02  1.037052306E-05  0.00000E+00  9.000E+00
       2     1     1     2   512     0 -7.960069666E+02 -2.573889010E+02 -7.437789635E+02  1.119412026E+03  1.078959322E-05  0.00000E+00  9.000E+00
      22     1     1     2     0     0  2.602236695E+01 -3.082835353E+02 -1.026480242E+02  3.259639836E+02  4.264961200E-06  0.00000E+00  9.000E+00
#rwgt            1          96   1.6638029302868660E-003        6024      666767           0
<rwgt>
<wgt id='central'>  0.624946444E+02 </wgt>
<wgt id='sudakovwgt'>  0.370435438E-02 </wgt>
<wgt id='scales0.50.5'>  0.790501775E+02 </wgt>
<wgt id='scales0.51.0'>  0.731385398E+02 </wgt>
<wgt id='scales1.00.5'>  0.675459100E+02 </wgt>
<wgt id='scales1.02.0'>  0.580805397E+02 </wgt>
<wgt id='scales2.01.0'>  0.540368228E+02 </wgt>
<wgt id='scales2.02.0'>  0.502201443E+02 </wgt>
</rwgt>
<scales uborns=' 0.105268792E+04'> </scales>
</event>
<event>
      5  10001  6.48655E+01  1.97376E+02  7.29735E-03  1.11857E-01
       2    -1     0     0   513     0  0.000000000E+00  0.000000000E+00  2.745619781E+03  2.745619781E+03  0.000000000E+00  0.00000E+00  9.000E+00
       2    -1     0     0   511     0  0.000000000E+00  0.000000000E+00 -5.660992101E+02  5.660992101E+02  0.000000000E+00  0.00000E+00  9.000E+00
       2     1     1     2   513     0 -1.007696887E+03 -2.493203215E+02  1.868396705E+02  1.054761917E+03  2.683877426E-05  0.00000E+00  9.000E+00
       2     1     1     2   511     0  5.799666177E+02  3.616435734E+01  1.050748530E+03  1.200725453E+03  1.525878906E-05  0.00000E+00  9.000E+00
      22     1     1     2     0     0  4.277302694E+02  2.131559641E+02  9.419323698E+02  1.056231621E+03  1.868812365E-05  0.00000E+00  9.000E+00
#rwgt            1          97   1.6590321029480290E-003        6024      733025           0
<rwgt>
<wgt id='central'>  0.648654691E+02 </wgt>
<wgt id='sudakovwgt'>  0.453353991E-02 </wgt>
<wgt id='scales0.50.5'>  0.831813825E+02 </wgt>
<wgt id='scales0.51.0'>  0.759225899E+02 </wgt>
<wgt id='scales1.00.5'>  0.710671485E+02 </wgt>
<wgt id='scales1.02.0'>  0.595370590E+02 </wgt>
<wgt id='scales2.01.0'>  0.560809748E+02 </wgt>
<wgt id='scales2.02.0'>  0.514741473E+02 </wgt>
</rwgt>
<scales uborns=' 0.104572883E+04'> </scales>
</event>
<event>
      4  10001  5.93683E+04  8.94427E-01  7.29735E-03  7.50337E-01
      21    -1     0     0   514   511  0.000000000E+00  0.000000000E+00  1.247717989E+02  1.247717989E+02  0.000000000E+00  0.00000E+00  9.000E+00
       1    -1     0     0   511     0  0.000000000E+00  0.000000000E+00 -1.102572489E+03  1.102572489E+03  0.000000000E+00  0.00000E+00  9.000E+00
       1     1     1     2   512     0 -1.396403708E+02 -2.943217354E+02 -7.822948961E+02  8.474137252E+02  1.078959322E-05  0.00000E+00  9.000E+00
      21     1     1     2   514   512  1.396403708E+02  2.943217354E+02 -1.955057941E+02  3.799305629E+02  5.394796609E-06  0.00000E+00  9.000E+00
#rwgt            1         186   5.6634045275159670E-003        6024      740974           0
<rwgt>
<wgt id='central'>  0.593683366E+05 </wgt>
<wgt id='sudakovwgt'>  0.177620593E+01 </wgt>
<wgt id='scales0.50.5'>  0.750379357E+05 </wgt>
<wgt id='scales0.51.0'>  0.712633529E+05 </wgt>
<wgt id='scales1.00.5'>  0.625128414E+05 </wgt>
<wgt id='scales1.02.0'>  0.563532884E+05 </wgt>
<wgt id='scales2.01.0'>  0.502515918E+05 </wgt>
<wgt id='scales2.02.0'>  0.476995711E+05 </wgt>
</rwgt>
<scales uborns=' 0.325767888E+03'> </scales>
</event>
<event>
      5  10001  3.96737E+01  3.10281E+01  7.29735E-03  1.52030E-01
       1    -1     0     0   512     0  0.000000000E+00  0.000000000E+00  1.827607795E+03  1.827607795E+03  0.000000000E+00  0.00000E+00  9.000E+00
       1    -1     0     0   513     0  0.000000000E+00  0.000000000E+00 -1.263342647E+03  1.263342647E+03  0.000000000E+00  0.00000E+00  9.000E+00
       1     1     1     2   513     0  9.787283194E+02  5.883166940E+02  1.301575402E+03  1.731509221E+03  3.051757812E-05  0.00000E+00  9.000E+00
      22     1     1     2     0     0 -3.018568289E+02 -1.891434615E+02 -2.217219319E+02  4.195871891E+02  1.236103191E-05  0.00000E+00  9.000E+00
       1     1     1     2   512     0 -6.768714905E+02 -3.991732326E+02 -5.155883214E+02  9.398540320E+02  1.321449896E-05  0.00000E+00  9.000E+00
#rwgt            1          91   5.5110026569768326E-004        6024      742539           0
<rwgt>
<wgt id='central'>  0.396736933E+02 </wgt>
<wgt id='sudakovwgt'>  0.729071112E-03 </wgt>
<wgt id='scales0.50.5'>  0.518548492E+02 </wgt>
<wgt id='scales0.51.0'>  0.463614702E+02 </wgt>
<wgt id='scales1.00.5'>  0.443746440E+02 </wgt>
<wgt id='scales1.02.0'>  0.357223481E+02 </wgt>
<wgt id='scales2.01.0'>  0.343481663E+02 </wgt>
<wgt id='scales2.02.0'>  0.309272177E+02 </wgt>
</rwgt>
<scales uborns=' 0.114199240E+04'> </scales>
</event>
<event>
      5  10001  2.35002E+02  1.07263E+01  7.29735E-03  1.92301E-01
       2    -1     0     0   511     0  0.000000000E+00  0.000000000E+00  1.927496150E+03  1.927496150E+03  0.000000000E+00  0.00000E+00  9.000E+00
      -2    -1     0     0     0   511  0.000000000E+00  0.000000000E+00 -6.170991516E+02  6.170991516E+02  0.000000000E+00  0.00000E+00  9.000E+00
       2     1     1     2   512     0  2.911937879E+02 -7.811410253E+02  1.474677438E+03  1.694003739E+03  2.157918644E-05  0.00000E+00  9.000E+00
      -2     1     1     2     0   512 -2.786300180E+02  7.216503348E+02 -1.571358168E+02  7.893703551E+02  1.452593442E-05  0.00000E+00  9.000E+00
      22     1     1     2     0     0 -1.256376998E+01  5.949069048E+01 -7.144622483E+00  6.122120711E+01  1.164962070E-06  0.00000E+00  9.000E+00
#rwgt            1          47   5.2020328778849877E-004        6024      744962           0
<rwgt>
<wgt id='central'>  0.235001685E+03 </wgt>
<wgt id='sudakovwgt'>  0.153390690E-02 </wgt>
<wgt id='scales0.50.5'>  0.301265053E+03 </wgt>
<wgt id='scales0.51.0'>  0.276252064E+03 </wgt>
<wgt id='scales1.00.5'>  0.256280040E+03 </wgt>
<wgt id='scales1.02.0'>  0.216576838E+03 </wgt>
<wgt id='scales2.01.0'>  0.202431692E+03 </wgt>
<wgt id='scales2.02.0'>  0.186560181E+03 </wgt>
</rwgt>
<scales uborns=' 0.833922096E+03'> </scales>
</event>
<event>
      5  10001  6.55823E+00  1.76401E+02  7.29735E-03  1.13670E-01
      21    -1     0     0   513   514  0.000000000E+00  0.000000000E+00  2.104012559E+03  2.104012559E+03  0.000000000E+00  0.00000E+00  9.000E+00
       2    -1     0     0   512     0  0.000000000E+00  0.000000000E+00 -2.865986422E+03  2.865986422E+03  0.000000000E+00  0.00000E+00  9.000E+00
      22     1     1     2     0     0 -4.953317596E+02  3.135109430E+02 -9.572473210E+02  1.122481669E+03  1.525878906E-05  0.00000E+00  9.000E+00
      21     1     1     2   512   514  1.345423656E+03 -8.557898657E+02  1.506347192E+03  2.193541194E+03  3.737624730E-05  0.00000E+00  9.000E+00
       2     1     1     2   513     0 -8.500918964E+02  5.422789226E+02 -1.311073734E+03  1.653976118E+03  4.037096117E-05  0.00000E+00  9.000E+00
#rwgt            1         187   6.1404169522269996E-003        6024      771444           0
<rwgt>
<wgt id='central'>  0.655822936E+01 </wgt>
<wgt id='sudakovwgt'>  0.669100223E-01 </wgt>
<wgt id='scales0.50.5'>  0.924619068E+01 </wgt>
<wgt id='scales0.51.0'>  0.761903474E+01 </wgt>
<wgt id='scales1.00.5'>  0.795883563E+01 </wgt>
<wgt id='scales1.02.0'>  0.547973193E+01 </wgt>
<wgt id='scales2.01.0'>  0.570640118E+01 </wgt>
<wgt id='scales2.02.0'>  0.476798599E+01 </wgt>
</rwgt>
<scales uborns=' 0.159591737E+04'> </scales>
</event>
<event>
      5  10001  1.73134E+03  4.51655E+01  7.29735E-03  1.41643E-01
       2    -1     0     0   511     0  0.000000000E+00  0.000000000E+00  3.057814777E+03  3.057814777E+03  0.000000000E+00  0.00000E+00  9.000E+00
      -1    -1     0     0     0   511  0.000000000E+00  0.000000000E+00 -1.810148340E+02  1.810148340E+02  0.000000000E+00  0.00000E+00  9.000E+00
       2     1     1     2   512     0  1.370796570E+02 -5.592951369E+02  2.355877816E+03  2.425234456E+03  3.051757812E-05  0.00000E+00  9.000E+00
      -1     1     1     2     0   512 -1.599094130E+02  5.630699026E+02  4.480422241E+02  7.371299548E+02  9.344061824E-06  0.00000E+00  9.000E+00
      22     1     1     2     0     0  2.282975591E+01 -3.774765680E+00  7.287990308E+01  7.646520048E+01  9.536743164E-07  0.00000E+00  9.000E+00
#rwgt            1         145   6.5849651372008877E-004        6024      772339           0
<rwgt>
<wgt id='central'>  0.173134114E+04 </wgt>
<wgt id='sudakovwgt'>  0.158143578E-04 </wgt>
<wgt id='scales0.50.5'>  0.223245390E+04 </wgt>
<wgt id='scales0.51.0'>  0.204962188E+04 </wgt>
<wgt id='scales1.00.5'>  0.188578038E+04 </wgt>
<wgt id='scales1.02.0'>  0.159650361E+04 </wgt>
<wgt id='scales2.01.0'>  0.148254095E+04 </wgt>
<wgt id='scales2.02.0'>  0.136708098E+04 </wgt>
</rwgt>
<scales uborns=' 0.591607476E+03'> </scales>
</event>
<event>
      5  10001  1.84177E+03  1.29411E+02  7.29735E-03  1.18993E-01
      21    -1     0     0   513   514  0.000000000E+00  0.000000000E+00  3.506740599E+02  3.506740599E+02  0.000000000E+00  0.00000E+00  9.000E+00
       2    -1     0     0   512     0  0.000000000E+00  0.000000000E+00 -1.091273936E+03  1.091273936E+03  0.000000000E+00  0.00000E+00  9.000E+00
       2     1     1     2   513     0 -4.138697697E+02 -1.268736176E+02 -7.756042148E+01  4.397734872E+02  9.818678037E-06  0.00000E+00  9.000E+00
      21     1     1     2   512   514  5.656453071E+02  5.109424409E+01 -5.853221555E+02  8.155778693E+02  0.000000000E+00  0.00000E+00  9.000E+00
      22     1     1     2     0     0 -1.517755375E+02  7.577937352E+01 -7.771729915E+01  1.865966393E+02  4.573661350E-06  0.00000E+00  9.000E+00
#rwgt            1         187   2.1182730155698461E-003        6024      809247           0
<rwgt>
<wgt id='central'>  0.184176798E+04 </wgt>
<wgt id='sudakovwgt'>  0.919118289E-03 </wgt>
<wgt id='scales0.50.5'>  0.235711468E+04 </wgt>
<wgt id='scales0.51.0'>  0.218084535E+04 </wgt>
<wgt id='scales1.00.5'>  0.199063318E+04 </wgt>
<wgt id='scales1.02.0'>  0.171028621E+04 </wgt>
<wgt id='scales2.01.0'>  0.157680212E+04 </wgt>
<wgt id='scales2.02.0'>  0.146423435E+04 </wgt>
</rwgt>
<scales uborns=' 0.585411703E+03'> </scales>
</event>
<event>
      5  10001  5.40046E+04  2.56770E+02  7.29735E-03  1.07835E-01
       2    -1     0     0   515     0  0.000000000E+00  0.000000000E+00  2.411672696E+02  2.411672696E+02  0.000000000E+00  0.00000E+00  9.000E+00
      21    -1     0     0   511   513  0.000000000E+00  0.000000000E+00 -5.021879297E+02  5.021879297E+02  0.000000000E+00  0.00000E+00  9.000E+00
      22     1     1     2     0     0  1.538446274E+02 -5.085051144E+01 -1.695245206E+01  1.629150991E+02  2.261837239E-06  0.00000E+00  9.000E+00
      21     1     1     2   515   513 -1.404504603E+02  2.607624153E+02 -2.195422477E+02  3.686762368E+02  6.607249480E-06  0.00000E+00  9.000E+00
       2     1     1     2   511     0 -1.339416706E+01 -2.099119039E+02 -2.452596033E+01  2.117638634E+02  4.317944116E-06  0.00000E+00  9.000E+00
#rwgt            1         182   1.8364545999743312E-003        6024      809841           0
<rwgt>
<wgt id='central'>  0.540045900E+05 </wgt>
<wgt id='sudakovwgt'>  0.167461858E-02 </wgt>
<wgt id='scales0.50.5'>  0.683860304E+05 </wgt>
<wgt id='scales0.51.0'>  0.647990897E+05 </wgt>
<wgt id='scales1.00.5'>  0.569940139E+05 </wgt>
<wgt id='scales1.02.0'>  0.512394180E+05 </wgt>
<wgt id='scales2.01.0'>  0.457266989E+05 </wgt>
<wgt id='scales2.02.0'>  0.433853679E+05 </wgt>
</rwgt>
<scales uborns=' 0.330985142E+03'> </scales>
</event>
<event>
      5  10001  5.09056E+04  5.47779E+01  7.29735E-03  1.36851E-01
      21    -1     0     0   511   512  0.000000000E+00  0.000000000E+00  2.426584582E+02  2.426584582E+02  0.000000000E+00  0.00000E+00  9.000E+00
       2    -1     0     0   514     0  0.000000000E+00  0.000000000E+00 -8.773936192E+02  8.773936192E+02  0.000000000E+00  0.00000E+00  9.000E+00
       2     1     1     2   511     0 -3.280995386E+02  7.924635235E+01 -6.812391633E+02  7.602736936E+02  0.000000000E+00  0.00000E+00  9.000E+00
      21     1     1     2   514   512  3.021334062E+02 -9.608465361E+01  6.512052142E+01  3.236626919E+02  6.810596875E-06  0.00000E+00  9.000E+00
      22     1     1     2     0     0  2.596613240E+01  1.683830125E+01 -1.861651902E+01  3.611569190E+01  5.331201500E-07  0.00000E+00  9.000E+00
#rwgt            1         187   8.9763417422188980E-003        6024      810242           0
<rwgt>
<wgt id='central'>  0.509055610E+05 </wgt>
<wgt id='sudakovwgt'>  0.136623060E-02 </wgt>
<wgt id='scales0.50.5'>  0.646803009E+05 </wgt>
<wgt id='scales0.51.0'>  0.610654856E+05 </wgt>
<wgt id='scales1.00.5'>  0.539189935E+05 </wgt>
<wgt id='scales1.02.0'>  0.481092077E+05 </wgt>
<wgt id='scales2.01.0'>  0.431116032E+05 </wgt>
<wgt id='scales2.02.0'>  0.407433578E+05 </wgt>
</rwgt>
<scales uborns=' 0.334284049E+03'> </scales>
</event>
<event>
      5  10001  6.62424E+01  1.47410E+00  7.29735E-03  4.50691E-01
      21    -1     0     0   513   515  0.000000000E+00  0.000000000E+00  1.712307391E+03  1.712307391E+03  0.000000000E+00  0.00000E+00  9.000E+00
       1    -1     0     0   511     0  0.000000000E+00  0.000000000E+00 -6.442109813E+02  6.442109813E+02  0.000000000E+00  0.00000E+00  9.000E+00
       1     1     1     2   513     0 -1.005918428E+03  2.704432959E+02  5.472555234E+02  1.176647810E+03  2.412626389E-05  0.00000E+00  9.000E+00
      21     1     1     2   511   515  1.005909222E+03 -2.719173632E+02  5.310659086E+02  1.169539830E+03  4.037096117E-05  0.00000E+00  9.000E+00
      22     1     1     2     0     0  9.206428084E-03  1.474067224E+00 -1.022502182E+01  1.033073231E+01  0.000000000E+00  0.00000E+00  9.000E+00
#rwgt            1         186   6.9448356884313663E-004        6024      810921           0
<rwgt>
<wgt id='central'>  0.662423630E+02 </wgt>
<wgt id='sudakovwgt'>  0.390530778E-01 </wgt>
<wgt id='scales0.50.5'>  0.883612472E+02 </wgt>
<wgt id='scales0.51.0'>  0.775395853E+02 </wgt>
<wgt id='scales1.00.5'>  0.754873922E+02 </wgt>
<wgt id='scales1.02.0'>  0.586506396E+02 </wgt>
<wgt id='scales2.01.0'>  0.572680171E+02 </wgt>
<wgt id='scales2.02.0'>  0.507047726E+02 </wgt>
</rwgt>
<scales uborns=' 0.104182597E+04'> </scales>
</event>
<event>
      5  10001  3.84015E+02  5.43479E+02  7.29735E-03  9.78339E-02
       2    -1     0     0   512     0  0.000000000E+00  0.000000000E+00  3.641802232E+02  3.641802232E+02  0.000000000E+00  0.00000E+00  9.000E+00
       2    -1     0     0   513     0  0.000000000E+00  0.000000000E+00 -1.702632528E+03  1.702632528E+03  0.000000000E+00  0.00000E+00  9.000E+00
       2     1     1     2   512     0 -2.749832311E+02 -6.858053529E+02 -8.773651066E+02  1.147045897E+03  1.078959322E-05  0.00000E+00  9.000E+00
       2     1     1     2   513     0  4.881881483E+01  9.947224055E+01  3.812070399E+01  1.171801664E+02  4.768371582E-07  0.00000E+00  9.000E+00
      22     1     1     2     0     0  2.261644163E+02  5.863331124E+02 -4.992079024E+02  8.025866880E+02  1.618438983E-05  0.00000E+00  9.000E+00
#rwgt            1          97   7.9058378196982036E-004        6024      812391           0
<rwgt>
<wgt id='central'>  0.384014953E+03 </wgt>
<wgt id='sudakovwgt'>  0.172183500E-02 </wgt>
<wgt id='scales0.50.5'>  0.478421021E+03 </wgt>
<wgt id='scales0.51.0'>  0.452184425E+03 </wgt>
<wgt id='scales1.00.5'>  0.406296277E+03 </wgt>
<wgt id='scales1.02.0'>  0.363928226E+03 </wgt>
<wgt id='scales2.01.0'>  0.330319216E+03 </wgt>
<wgt id='scales2.02.0'>  0.313041121E+03 </wgt>
</rwgt>
<scales uborns=' 0.765876577E+03'> </scales>
</event>
<event>
      5  10001  1.75326E+05  3.77604E+01  7.29735E-03  1.46409E-01
       2    -1     0     0   512     0  0.000000000E+00  0.000000000E+00  7.458432490E+02  7.458432490E+02  0.000000000E+00  0.00000E+00  9.000E+00
       2    -1     0     0   511     0  0.000000000E+00  0.000000000E+00 -9.728203466E+02  9.728203466E+02  0.000000000E+00  0.00000E+00  9.000E+00
       2     1     1     2   511     0 -4.569414683E+01 -2.672266536E+02  6.994201528E+02  7.501243827E+02  0.000000000E+00  0.00000E+00  9.000E+00
       2     1     1     2   512     0  2.358457117E+01  2.453009880E+02 -7.509718158E+02  7.903717321E+02  1.868812365E-05  0.00000E+00  9.000E+00
      22     1     1     2     0     0  2.210957566E+01  2.192566565E+01 -1.754254345E+02  1.781674808E+02  2.697398305E-06  0.00000E+00  9.000E+00
#rwgt            1          97   1.1817670168633942E-003        6024      813667           0
<rwgt>
<wgt id='central'>  0.175326079E+06 </wgt>
<wgt id='sudakovwgt'>  0.980231799E-03 </wgt>
<wgt id='scales0.50.5'>  0.222986579E+06 </wgt>
<wgt id='scales0.51.0'>  0.211444656E+06 </wgt>
<wgt id='scales1.00.5'>  0.184896349E+06 </wgt>
<wgt id='scales1.02.0'>  0.166664913E+06 </wgt>
<wgt id='scales2.01.0'>  0.147827513E+06 </wgt>
<wgt id='scales2.02.0'>  0.140524848E+06 </wgt>
</rwgt>
<scales uborns=' 0.271700457E+03'> </scales>
</event>
<event>
      4  10001  1.11337E+04  8.94427E-01  7.29735E-03  7.51236E-01
      21    -1     0     0   513   511  0.000000000E+00  0.000000000E+00  5.521480807E+01  5.521480807E+01  0.000000000E+00  0.00000E+00  9.000E+00
       2    -1     0     0   514     0  0.000000000E+00  0.000000000E+00 -3.609719401E+03  3.609719401E+03  0.000000000E+00  0.00000E+00  9.000E+00
       2     1     1     2   513     0 -1.435920242E+02 -4.070744449E+02 -2.244919927E+03  2.286043253E+03  4.315837288E-05  0.00000E+00  9.000E+00
      21     1     1     2   514   511  1.435920242E+02  4.070744449E+02 -1.309584665E+03  1.378890956E+03  1.525878906E-05  0.00000E+00  9.000E+00
#rwgt            1         187   3.2098722216789374E-002        6024      836353           0
<rwgt>
<wgt id='central'>  0.111337150E+05 </wgt>
<wgt id='sudakovwgt'>  0.969394854E+01 </wgt>
<wgt id='scales0.50.5'>  0.145202335E+05 </wgt>
<wgt id='scales0.51.0'>  0.132736201E+05 </wgt>
<wgt id='scales1.00.5'>  0.121793393E+05 </wgt>
<wgt id='scales1.02.0'>  0.102036570E+05 </wgt>
<wgt id='scales2.01.0'>  0.947762656E+04 </wgt>
<wgt id='scales2.02.0'>  0.868592205E+04 </wgt>
</rwgt>
<scales uborns=' 0.431657588E+03'> </scales>
</event>
<event>
      5  10001  1.07514E+02  1.03257E+01  7.29735E-03  1.94162E-01
       2    -1     0     0   515     0  0.000000000E+00  0.000000000E+00  1.967620174E+03  1.967620174E+03  0.000000000E+00  0.00000E+00  9.000E+00
      21    -1     0     0   512   513  0.000000000E+00  0.000000000E+00 -5.014060092E+02  5.014060092E+02  0.000000000E+00  0.00000E+00  9.000E+00
      22     1     1     2     0     0  3.247676890E+01 -3.301063869E+01  5.185703258E+01  6.952405780E+01  9.536743164E-07  0.00000E+00  9.000E+00
      21     1     1     2   515   513 -6.634177291E+02  6.886364669E+02  3.990718983E+02  1.036147502E+03  1.705984480E-05  0.00000E+00  9.000E+00
       2     1     1     2   512     0  6.309409602E+02 -6.556258282E+02  1.015285234E+03  1.363354623E+03  1.078959322E-05  0.00000E+00  9.000E+00
#rwgt            1         182   9.1183768391850991E-003        6024      841343           0
<rwgt>
<wgt id='central'>  0.107514134E+03 </wgt>
<wgt id='sudakovwgt'>  0.117463205E-02 </wgt>
<wgt id='scales0.50.5'>  0.141061468E+03 </wgt>
<wgt id='scales0.51.0'>  0.126052622E+03 </wgt>
<wgt id='scales1.00.5'>  0.120315487E+03 </wgt>
<wgt id='scales1.02.0'>  0.967338345E+02 </wgt>
<wgt id='scales2.01.0'>  0.928209286E+02 </wgt>
<wgt id='scales2.02.0'>  0.835140014E+02 </wgt>
</rwgt>
<scales uborns=' 0.956214298E+03'> </scales>
</event>
<event>
      5  10001  6.76211E+01  9.94073E+01  7.29735E-03  1.23944E-01
       1    -1     0     0   511     0  0.000000000E+00  0.000000000E+00  1.865766085E+03  1.865766085E+03  0.000000000E+00  0.00000E+00  9.000E+00
       1    -1     0     0   512     0  0.000000000E+00  0.000000000E+00 -3.171314732E+03  3.171314732E+03  0.000000000E+00  0.00000E+00  9.000E+00
       1     1     1     2   511     0 -9.869517974E+02  2.916640850E+02 -2.905451189E+03  3.082334895E+03  4.315837288E-05  0.00000E+00  9.000E+00
       1     1     1     2   512     0  1.033459365E+03 -2.576089345E+02  1.528376795E+03  1.862883853E+03  2.157918644E-05  0.00000E+00  9.000E+00
      22     1     1     2     0     0 -4.650756793E+01 -3.405515052E+01  7.152574750E+01  9.186206893E+01  9.536743164E-07  0.00000E+00  9.000E+00
#rwgt            1          91   9.5178633585024425E-004        6024      846325           0
<rwgt>
<wgt id='central'>  0.676211077E+02 </wgt>
<wgt id='sudakovwgt'>  0.593681347E-01 </wgt>
<wgt id='scales0.50.5'>  0.943176488E+02 </wgt>
<wgt id='scales0.51.0'>  0.791588084E+02 </wgt>
<wgt id='scales1.00.5'>  0.805704796E+02 </wgt>
<wgt id='scales1.02.0'>  0.574542728E+02 </wgt>
<wgt id='scales2.01.0'>  0.584565402E+02 </wgt>
<wgt id='scales2.02.0'>  0.496676039E+02 </wgt>
</rwgt>
<scales uborns=' 0.103801427E+04'> </scales>
</event>
<event>
      5  10001  4.31326E+01  1.17695E+01  7.29735E-03  1.87918E-01
      21    -1     0     0   513   514  0.000000000E+00  0.000000000E+00  1.713853755E+03  1.713853755E+03  0.000000000E+00  0.00000E+00  9.000E+00
       1    -1     0     0   511     0  0.000000000E+00  0.000000000E+00 -9.454864025E+02  9.454864025E+02  0.000000000E+00  0.00000E+00  9.000E+00
       1     1     1     2   513     0 -8.985480005E+02  6.683015387E+02  4.558189008E+01  1.120755622E+03  2.591643952E-05  0.00000E+00  9.000E+00
      21     1     1     2   511   514  9.032721618E+02 -6.790813359E+02  8.479775708E+02  1.412840408E+03  3.236877966E-05  0.00000E+00  9.000E+00
      22     1     1     2     0     0 -4.724161301E+00  1.077979717E+01 -1.251921079E+02  1.257441275E+02  0.000000000E+00  0.00000E+00  9.000E+00
#rwgt            1         186   1.3687691486480560E-003        6024      847760           0
<rwgt>
<wgt id='central'>  0.431326090E+02 </wgt>
<wgt id='sudakovwgt'>  0.277853789E-01 </wgt>
<wgt id='scales0.50.5'>  0.578337353E+02 </wgt>
<wgt id='scales0.51.0'>  0.504172543E+02 </wgt>
<wgt id='scales1.00.5'>  0.494774935E+02 </wgt>
<wgt id='scales1.02.0'>  0.379581813E+02 </wgt>
<wgt id='scales2.01.0'>  0.373340346E+02 </wgt>
<wgt id='scales2.02.0'>  0.328552430E+02 </wgt>
</rwgt>
<scales uborns=' 0.112493356E+04'> </scales>
</event>
<event>
      4  10001  4.04329E+03  8.94427E-01  7.29735E-03  7.42556E-01
       1    -1     0     0   515     0  0.000000000E+00  0.000000000E+00  1.616974360E+03  1.616974360E+03  0.000000000E+00  0.00000E+00  9.000E+00
      21    -1     0     0   512   513  0.000000000E+00  0.000000000E+00 -1.677076380E+02  1.677076380E+02  0.000000000E+00  0.00000E+00  9.000E+00
       1     1     1     2   512     0  1.011227874E+02 -5.021611660E+02  8.852647740E+02  1.022783151E+03  1.078959322E-05  0.00000E+00  9.000E+00
      21     1     1     2   515   513 -1.011227874E+02  5.021611660E+02  5.640019476E+02  7.618988461E+02  0.000000000E+00  0.00000E+00  9.000E+00
#rwgt            1         181   4.2684955357570080E-003        6024      848408           0
<rwgt>
<wgt id='central'>  0.404328670E+04 </wgt>
<wgt id='sudakovwgt'>  0.179081997E+01 </wgt>
<wgt id='scales0.50.5'>  0.520529051E+04 </wgt>
<wgt id='scales0.51.0'>  0.480166821E+04 </wgt>
<wgt id='scales1.00.5'>  0.438316397E+04 </wgt>
<wgt id='scales1.02.0'>  0.374035588E+04 </wgt>
<wgt id='scales2.01.0'>  0.345312019E+04 </wgt>
<wgt id='scales2.02.0'>  0.319440317E+04 </wgt>
</rwgt>
<scales uborns=' 0.512241793E+03'> </scales>
</event>
<event>
      5  10001  2.29444E+02  1.25880E+02  7.29735E-03  1.19493E-01
       2    -1     0     0   512     0  0.000000000E+00  0.000000000E+00  1.400559071E+03  1.400559071E+03  0.000000000E+00  0.00000E+00  9.000E+00
      21    -1     0     0   511   514  0.000000000E+00  0.000000000E+00 -1.480456975E+03  1.480456975E+03  0.000000000E+00  0.00000E+00  9.000E+00
       2     1     1     2   511     0 -7.601156826E+02  4.784165909E+02  4.965754302E+02  1.026277469E+03  2.587253564E-05  0.00000E+00  9.000E+00
      21     1     1     2   512   514  6.796296401E+02 -3.816298052E+02 -1.082146108E+03  1.333633366E+03  3.051757812E-05  0.00000E+00  9.000E+00
      22     1     1     2     0     0  8.048604254E+01 -9.678678563E+01  5.056727748E+02  5.211052102E+02  5.394796609E-06  0.00000E+00  9.000E+00
#rwgt            1         182   3.1494245705404496E-003        6024      849416           0
<rwgt>
<wgt id='central'>  0.229444408E+03 </wgt>
<wgt id='sudakovwgt'>  0.226306312E-01 </wgt>
<wgt id='scales0.50.5'>  0.305814364E+03 </wgt>
<wgt id='scales0.51.0'>  0.269696436E+03 </wgt>
<wgt id='scales1.00.5'>  0.260171295E+03 </wgt>
<wgt id='scales1.02.0'>  0.204118210E+03 </wgt>
<wgt id='scales2.01.0'>  0.197657695E+03 </wgt>
<wgt id='scales2.02.0'>  0.175840445E+03 </wgt>
</rwgt>
<scales uborns=' 0.837400732E+03'> </scales>
</event>
<event>
      5  10001  2.15036E+04  2.00688E+02  7.29735E-03  1.11594E-01
      -1    -1     0     0     0   513  0.000000000E+00  0.000000000E+00  4.172353671E+02  4.172353671E+02  0.000000000E+00  0.00000E+00  9.000E+00
       1    -1     0     0   512     0  0.000000000E+00  0.000000000E+00 -4.672762429E+02  4.672762429E+02  0.000000000E+00  0.00000E+00  9.000E+00
       4     1     1     2   512     0 -2.426027037E+02  2.497784910E+02 -2.154918678E+02  4.094900627E+02  0.000000000E+00  0.00000E+00  9.000E+00
      -4     1     1     2     0   513  2.295276261E+02 -2.189568234E+02  1.144771523E+01  3.174209695E+02  4.620032877E-06  0.00000E+00  9.000E+00
      22     1     1     2     0     0  1.307507755E+01 -3.082166759E+01  1.540032768E+02  1.576005778E+02  2.697398305E-06  0.00000E+00  9.000E+00
#rwgt            1          81   3.9673652125798431E-006        6024      850456           0
<rwgt>
<wgt id='central'>  0.215035608E+05 </wgt>
<wgt id='sudakovwgt'>  0.112346272E-04 </wgt>
<wgt id='scales0.50.5'>  0.266471619E+05 </wgt>
<wgt id='scales0.51.0'>  0.257039586E+05 </wgt>
<wgt id='scales1.00.5'>  0.222926717E+05 </wgt>
<wgt id='scales1.02.0'>  0.207439991E+05 </wgt>
<wgt id='scales2.01.0'>  0.182650657E+05 </wgt>
<wgt id='scales2.02.0'>  0.176198640E+05 </wgt>
</rwgt>
<scales uborns=' 0.386364045E+03'> </scales>
</event>
<event>
      5  10001  1.75869E+04  9.64831E+00  7.29735E-03  1.97571E-01
       1    -1     0     0   512     0  0.000000000E+00  0.000000000E+00  5.890949313E+02  5.890949313E+02  0.000000000E+00  0.00000E+00  9.000E+00
      21    -1     0     0   511   514  0.000000000E+00  0.000000000E+00 -4.410944413E+02  4.410944413E+02  0.000000000E+00  0.00000E+00  9.000E+00
       1     1     1     2   511     0 -7.803210712E+00  4.013181384E+02  2.806089136E+02  4.897535101E+02  9.344061824E-06  0.00000E+00  9.000E+00
      21     1     1     2   512   514 -1.249438570E+00 -3.979805624E+02 -2.184905675E+02  4.540134550E+02  7.629394531E-06  0.00000E+00  9.000E+00
      22     1     1     2     0     0  9.052649282E+00 -3.337575917E+00  8.588214398E+01  8.642240755E+01  9.536743164E-07  0.00000E+00  9.000E+00
#rwgt            1         181   2.3469332626860980E-003        6024      850586           0
<rwgt>
<wgt id='central'>  0.175868616E+05 </wgt>
<wgt id='sudakovwgt'>  0.271238563E-01 </wgt>
<wgt id='scales0.50.5'>  0.225833422E+05 </wgt>
<wgt id='scales0.51.0'>  0.210051994E+05 </wgt>
<wgt id='scales1.00.5'>  0.189082224E+05 </wgt>
<wgt id='scales1.02.0'>  0.164095271E+05 </wgt>
<wgt id='scales2.01.0'>  0.149483107E+05 </wgt>
<wgt id='scales2.02.0'>  0.139475808E+05 </wgt>
</rwgt>
<scales uborns=' 0.399660162E+03'> </scales>
</event>
<event>
      5  10001  1.30948E+04  3.68870E+00  7.29735E-03  2.72046E-01
      21    -1     0     0   511   515  0.000000000E+00  0.000000000E+00  1.921457955E+02  1.921457955E+02  0.000000000E+00  0.00000E+00  9.000E+00
       4    -1     0     0   515     0  0.000000000E+00  0.000000000E+00 -1.067831363E+03  1.067831363E+03  0.000000000E+00  0.00000E+00  9.000E+00
       4     1     1     2   513     0  4.150244334E+02  5.345601207E+01 -6.459320210E+02  7.696304316E+02  1.321449896E-05  0.00000E+00  9.000E+00
      21     1     1     2   511   513 -4.183732369E+02 -5.190939819E+01 -2.113790125E+02  4.716055957E+02  6.607249480E-06  0.00000E+00  9.000E+00
      22     1     1     2     0     0  3.348803495E+00 -1.546613884E+00 -1.837453375E+01  1.874113096E+01  2.384185791E-07  0.00000E+00  9.000E+00
#rwgt            1         189   2.2067885851151931E-004        6024      850860           0
<rwgt>
<wgt id='central'>  0.130948068E+05 </wgt>
<wgt id='sudakovwgt'>  0.646906826E-01 </wgt>
<wgt id='scales0.50.5'>  0.158115810E+05 </wgt>
<wgt id='scales0.51.0'>  0.156216355E+05 </wgt>
<wgt id='scales1.00.5'>  0.132540214E+05 </wgt>
<wgt id='scales1.02.0'>  0.128258634E+05 </wgt>
<wgt id='scales2.01.0'>  0.111410731E+05 </wgt>
<wgt id='scales2.02.0'>  0.109122615E+05 </wgt>
</rwgt>
<scales uborns=' 0.420013385E+03'> </scales>
</event>
<event>
      5  10001  6.03642E+00  4.04760E+01  7.29735E-03  1.44522E-01
      21    -1     0     0   512   514  0.000000000E+00  0.000000000E+00  9.548410536E+02  9.548410536E+02  0.000000000E+00  0.00000E+00  9.000E+00
       2    -1     0     0   513     0  0.000000000E+00  0.000000000E+00 -2.968751450E+03  2.968751450E+03  0.000000000E+00  0.00000E+00  9.000E+00
      22     1     1     2     0     0 -4.863078110E+02 -1.658537745E+01 -4.530899058E+02  6.648765483E+02  0.000000000E+00  0.00000E+00  9.000E+00
      21     1     1     2   513   514  1.621535013E+03  1.883702416E+01 -4.798331028E+02  1.691144712E+03  2.018548058E-05  0.00000E+00  9.000E+00
       2     1     1     2   512     0 -1.135227202E+03 -2.251646713E+00 -1.080987387E+03  1.567571243E+03  1.525878906E-05  0.00000E+00  9.000E+00
#rwgt            1         187   7.8332979791921210E-003        6024      869406           0
<rwgt>
<wgt id='central'>  0.603641705E+01 </wgt>
<wgt id='sudakovwgt'>  0.181110213E-02 </wgt>
<wgt id='scales0.50.5'>  0.816844019E+01 </wgt>
<wgt id='scales0.51.0'>  0.701093206E+01 </wgt>
<wgt id='scales1.00.5'>  0.703303574E+01 </wgt>
<wgt id='scales1.02.0'>  0.523384795E+01 </wgt>
<wgt id='scales2.01.0'>  0.525358255E+01 </wgt>
<wgt id='scales2.02.0'>  0.455509264E+01 </wgt>
</rwgt>
<scales uborns=' 0.162174445E+04'> </scales>
</event>
<event>
      5  10001  4.52558E+03  5.41758E+01  7.29735E-03  1.37116E-01
       2    -1     0     0   511     0  0.000000000E+00  0.000000000E+00  8.844078180E+02  8.844078180E+02  0.000000000E+00  0.00000E+00  9.000E+00
       2    -1     0     0   512     0  0.000000000E+00  0.000000000E+00 -2.855875486E+02  2.855875486E+02  0.000000000E+00  0.00000E+00  9.000E+00
       2     1     1     2   511     0  4.305510121E+02 -2.476943789E+02  2.996043874E+02  5.800771227E+02  0.000000000E+00  0.00000E+00  9.000E+00
       2     1     1     2   512     0 -3.498788423E+02  2.035684583E+02  2.890668572E+02  4.974082523E+02  1.009274029E-05  0.00000E+00  9.000E+00
      22     1     1     2     0     0 -8.067216976E+01  4.412592064E+01  1.014902483E+01  9.250999163E+01  2.399040675E-06  0.00000E+00  9.000E+00
#rwgt            1          97   3.5820555378154769E-004        6024      870354           0
<rwgt>
<wgt id='central'>  0.452558009E+04 </wgt>
<wgt id='sudakovwgt'>  0.673371412E-02 </wgt>
<wgt id='scales0.50.5'>  0.551517792E+04 </wgt>
<wgt id='scales0.51.0'>  0.537670721E+04 </wgt>
<wgt id='scales1.00.5'>  0.464213093E+04 </wgt>
<wgt id='scales1.02.0'>  0.441141835E+04 </wgt>
<wgt id='scales2.01.0'>  0.386363430E+04 </wgt>
<wgt id='scales2.02.0'>  0.376617079E+04 </wgt>
</rwgt>
<scales uborns=' 0.502559105E+03'> </scales>
</event>
<event>
      5  10001  4.05918E+01  7.97215E+00  7.29735E-03  2.07868E-01
      21    -1     0     0   514   512  0.000000000E+00  0.000000000E+00  1.708526094E+03  1.708526094E+03  0.000000000E+00  0.00000E+00  9.000E+00
       1    -1     0     0   512     0  0.000000000E+00  0.000000000E+00 -1.669050744E+03  1.669050744E+03  0.000000000E+00  0.00000E+00  9.000E+00
       1     1     1     2   513     0  1.041403137E+03  4.637467579E+02  1.262684551E+03  1.701162492E+03  2.157918644E-05  0.00000E+00  9.000E+00
      21     1     1     2   514   513 -1.034084425E+03 -4.669076990E+02 -1.198161642E+03  1.650128697E+03  4.577636719E-05  0.00000E+00  9.000E+00
      22     1     1     2     0     0 -7.318712278E+00  3.160941080E+00 -2.504755946E+01  2.628564880E+01  4.768371582E-07  0.00000E+00  9.000E+00
#rwgt            1         186   9.6499628156709345E-005        6024      883070           0
<rwgt>
<wgt id='central'>  0.405917984E+02 </wgt>
<wgt id='sudakovwgt'>  0.257203122E-01 </wgt>
<wgt id='scales0.50.5'>  0.559118036E+02 </wgt>
<wgt id='scales0.51.0'>  0.474378910E+02 </wgt>
<wgt id='scales1.00.5'>  0.478427835E+02 </wgt>
<wgt id='scales1.02.0'>  0.348413662E+02 </wgt>
<wgt id='scales2.01.0'>  0.351407783E+02 </wgt>
<wgt id='scales2.02.0'>  0.301625630E+02 </wgt>
</rwgt>
<scales uborns=' 0.113729426E+04'> </scales>
</event>
<event>
      5  10001  1.95193E+01  1.46450E+02  7.29735E-03  1.16807E-01
       2    -1     0     0   513     0  0.000000000E+00  0.000000000E+00  2.645757851E+03  2.645757851E+03  0.000000000E+00  0.00000E+00  9.000E+00
       2    -1     0     0   511     0  0.000000000E+00  0.000000000E+00 -8.649534545E+02  8.649534545E+02  0.000000000E+00  0.00000E+00  9.000E+00
       2     1     1     2   511     0 -6.472028760E+02  1.101311452E+03  1.758615341E+03  2.173588368E+03  3.051757812E-05  0.00000E+00  9.000E+00
      22     1     1     2     0     0  5.883620196E+02 -9.267839930E+02 -1.201864770E+02  1.104329310E+03  3.529883485E-05  0.00000E+00  9.000E+00
       2     1     1     2   513     0  5.884085643E+01 -1.745274593E+02  1.423755325E+02  2.327936268E+02  3.303624740E-06  0.00000E+00  9.000E+00
#rwgt            1          97   2.1523341285679502E-003        6024      883586           0
<rwgt>
<wgt id='central'>  0.195192526E+02 </wgt>
<wgt id='sudakovwgt'>  0.137244558E-02 </wgt>
<wgt id='scales0.50.5'>  0.250703019E+02 </wgt>
<wgt id='scales0.51.0'>  0.227569468E+02 </wgt>
<wgt id='scales1.00.5'>  0.215035325E+02 </wgt>
<wgt id='scales1.02.0'>  0.178264163E+02 </wgt>
<wgt id='scales2.01.0'>  0.169325892E+02 </wgt>
<wgt id='scales2.02.0'>  0.154640476E+02 </wgt>
</rwgt>
<scales uborns=' 0.129949902E+04'> </scales>
</event>
<event>
      5  10001  1.28102E+05  7.48768E+00  7.29735E-03  2.11500E-01
      21    -1     0     0   512   514  0.000000000E+00  0.000000000E+00  2.066801843E+02  2.066801843E+02  0.000000000E+00  0.00000E+00  9.000E+00
      21    -1     0     0   514   513  0.000000000E+00  0.000000000E+00 -4.749413055E+02  4.749413055E+02  0.000000000E+00  0.00000E+00  9.000E+00
       1     1     1     2   512     0  6.281496017E+01  2.793092388E+02  4.139096228E+00  2.863153894E+02  4.581422532E-06  0.00000E+00  9.000E+00
      -1     1     1     2     0   513 -4.010767456E+01 -1.846915535E+02 -1.733305084E+02  2.564430943E+02  7.864199878E-06  0.00000E+00  9.000E+00
      22     1     1     2     0     0 -2.270728560E+01 -9.461768532E+01 -9.906970898E+01  1.388630060E+02  2.697398305E-06  0.00000E+00  9.000E+00
#rwgt            1         201   1.1570898093393365E-004        6024      895208           0
<rwgt>
<wgt id='central'>  0.128101623E+06 </wgt>
<wgt id='sudakovwgt'>  0.407751543E-01 </wgt>
<wgt id='scales0.50.5'>  0.167447294E+06 </wgt>
<wgt id='scales0.51.0'>  0.154278299E+06 </wgt>
<wgt id='scales1.00.5'>  0.139036620E+06 </wgt>
<wgt id='scales1.02.0'>  0.118255388E+06 </wgt>
<wgt id='scales2.01.0'>  0.108133794E+06 </wgt>
<wgt id='scales2.02.0'>  0.998220462E+05 </wgt>
</rwgt>
<scales uborns=' 0.286362533E+03'> </scales>
</event>
<event>
      5  10001  4.45926E+03  2.87473E+01  7.29735E-03  1.54337E-01
       1    -1     0     0   511     0  0.000000000E+00  0.000000000E+00  5.655643421E+02  5.655643421E+02  0.000000000E+00  0.00000E+00  9.000E+00
      -3    -1     0     0     0   511  0.000000000E+00  0.000000000E+00 -8.260882100E+02  8.260882100E+02  0.000000000E+00  0.00000E+00  9.000E+00
      22     1     1     2     0     0 -1.592026526E+02  1.873471110E+02 -2.720643221E+02  3.666925414E+02  0.000000000E+00  0.00000E+00  9.000E+00
      -3     1     1     2     0   514  3.263238551E+02 -3.835948886E+02  3.398429897E+02  6.075570382E+02  8.529922400E-06  0.00000E+00  9.000E+00
       1     1     1     2   514     0 -1.671212025E+02  1.962477777E+02 -3.283025356E+02  4.174029725E+02  1.078959322E-05  0.00000E+00  9.000E+00
#rwgt            1         142   1.6738127709790832E-006        6024      895893           0
<rwgt>
<wgt id='central'>  0.445925722E+04 </wgt>
<wgt id='sudakovwgt'>  0.882082271E-03 </wgt>
<wgt id='scales0.50.5'>  0.555544585E+04 </wgt>
<wgt id='scales0.51.0'>  0.529761834E+04 </wgt>
<wgt id='scales1.00.5'>  0.467628582E+04 </wgt>
<wgt id='scales1.02.0'>  0.425359709E+04 </wgt>
<wgt id='scales2.01.0'>  0.380719313E+04 </wgt>
<wgt id='scales2.02.0'>  0.363160382E+04 </wgt>
</rwgt>
<scales uborns=' 0.503816839E+03'> </scales>
</event>
<event>
      5  10001  1.80601E+01  5.94130E+02  7.29735E-03  9.67694E-02
       2    -1     0     0   512     0  0.000000000E+00  0.000000000E+00  8.056093863E+02  8.056093863E+02  0.000000000E+00  0.00000E+00  9.000E+00
       2    -1     0     0   513     0  0.000000000E+00  0.000000000E+00 -2.628174233E+03  2.628174233E+03  0.000000000E+00  0.00000E+00  9.000E+00
       2     1     1     2   512     0 -2.119366044E+02 -1.166021630E+03 -1.658131716E+02  1.196669367E+03  1.849243110E-05  0.00000E+00  9.000E+00
       2     1     1     2   513     0  1.010478219E+02  1.125000922E+03 -8.293462566E+02  1.401304018E+03  2.642899792E-05  0.00000E+00  9.000E+00
      22     1     1     2     0     0  1.108887826E+02  4.102070796E+01 -8.274054184E+02  8.358102338E+02  1.078959322E-05  0.00000E+00  9.000E+00
#rwgt            1          97   1.9925266147434464E-003        6024      896711           0
<rwgt>
<wgt id='central'>  0.180601111E+02 </wgt>
<wgt id='sudakovwgt'>  0.100376777E-01 </wgt>
<wgt id='scales0.50.5'>  0.231473120E+02 </wgt>
<wgt id='scales0.51.0'>  0.210503976E+02 </wgt>
<wgt id='scales1.00.5'>  0.198591389E+02 </wgt>
<wgt id='scales1.02.0'>  0.165204962E+02 </wgt>
<wgt id='scales2.01.0'>  0.156701457E+02 </wgt>
<wgt id='scales2.02.0'>  0.143342829E+02 </wgt>
</rwgt>
<scales uborns=' 0.131826249E+04'> </scales>
</event>
<event>
      5  10001  2.15817E+01  2.92642E+02  7.29735E-03  1.05943E-01
       2    -1     0     0     0   501  0.000000000E+00  0.000000000E+00  2.261915190E+03  2.261915190E+03  0.000000000E+00  0.00000E+00  9.000E+00
      21    -1     0     0   502   511  0.000000000E+00  0.000000000E+00 -1.049438162E+03  1.049438162E+03  0.000000000E+00  0.00000E+00  9.000E+00
      22     1     1     2     0     0 -1.236857901E+02 -1.184405391E+03  7.914826108E+02  1.429880774E+03  2.412626389E-05  0.00000E+00  9.000E+00
      21     1     1     2   502   501 -9.953160864E+01  1.373650196E+03  6.373113943E+02  1.517559625E+03  1.705984480E-05  0.00000E+00  9.000E+00
       2     1     1     2     0   511  2.232173987E+02 -1.892448048E+02 -2.163169765E+02  3.639129533E+02  7.629394531E-06  0.00000E+00  9.000E+00
#rwgt            1           2   5.6272088582865104E-006        6024      899397           0
<rwgt>
<wgt id='central'>  0.215817088E+02 </wgt>
<wgt id='sudakovwgt'>  0.100000000E+01 </wgt>
<wgt id='scales0.50.5'>  0.218417411E+02 </wgt>
<wgt id='scales0.51.0'>  0.226037055E+02 </wgt>
<wgt id='scales1.00.5'>  0.211571737E+02 </wgt>
<wgt id='scales1.02.0'>  0.219408744E+02 </wgt>
<wgt id='scales2.01.0'>  0.242282074E+02 </wgt>
<wgt id='scales2.02.0'>  0.240486180E+02 </wgt>
</rwgt>
<scales uborns=' 0.127571065E+04'> </scales>
</event>
<event>
      5  10001  4.45511E+03  4.38041E+01  7.29735E-03  1.42435E-01
       2    -1     0     0   513     0  0.000000000E+00  0.000000000E+00  1.930331537E+03  1.930331537E+03  0.000000000E+00  0.00000E+00  9.000E+00
      21    -1     0     0   512   511  0.000000000E+00  0.000000000E+00 -2.282630277E+02  2.282630277E+02  0.000000000E+00  0.00000E+00  9.000E+00
       2     1     1     2   512     0  3.692530691E+02 -3.079229817E+02  1.427351489E+03  1.506152935E+03  2.157918644E-05  0.00000E+00  9.000E+00
      21     1     1     2   513   511 -3.586025775E+02  3.448601816E+02  1.465791122E+02  5.186615366E+02  1.078959322E-05  0.00000E+00  9.000E+00
      22     1     1     2     0     0 -1.065049160E+01 -3.693719993E+01  1.281379079E+02  1.337800925E+02  1.907348633E-06  0.00000E+00  9.000E+00
#rwgt            1         182   1.2690514343223162E-002        6024      899967           0
<rwgt>
<wgt id='central'>  0.445510820E+04 </wgt>
<wgt id='sudakovwgt'>  0.148795719E+00 </wgt>
<wgt id='scales0.50.5'>  0.578681819E+04 </wgt>
<wgt id='scales0.51.0'>  0.529266948E+04 </wgt>
<wgt id='scales1.00.5'>  0.487106019E+04 </wgt>
<wgt id='scales1.02.0'>  0.409134274E+04 </wgt>
<wgt id='scales2.01.0'>  0.380366121E+04 </wgt>
<wgt id='scales2.02.0'>  0.349308585E+04 </wgt>
</rwgt>
<scales uborns=' 0.503896249E+03'> </scales>
</event>
<event>
      5  10001  5.73071E+01  8.20850E+00  7.29735E-03  2.06220E-01
       2    -1     0     0   511     0  0.000000000E+00  0.000000000E+00  1.777456098E+03  1.777456098E+03  0.000000000E+00  0.00000E+00  9.000E+00
      21    -1     0     0   514   515  0.000000000E+00  0.000000000E+00 -6.643701639E+02  6.643701639E+02  0.000000000E+00  0.00000E+00  9.000E+00
       2     1     1     2   514     0 -1.059564487E+03 -1.628583131E+02  6.160219118E+02  1.236399097E+03  1.705984480E-05  0.00000E+00  9.000E+00
      21     1     1     2   511   515  1.052916000E+03  1.676725650E+02  4.493386740E+02  1.157001053E+03  2.905186884E-05  0.00000E+00  9.000E+00
      22     1     1     2     0     0  6.648486621E+00 -4.814251913E+00  4.772534815E+01  4.842611126E+01  6.743495762E-07  0.00000E+00  9.000E+00
#rwgt            1         182   6.3703489969717635E-003        6024      902292           0
<rwgt>
<wgt id='central'>  0.573071480E+02 </wgt>
<wgt id='sudakovwgt'>  0.139081597E+00 </wgt>
<wgt id='scales0.50.5'>  0.751378991E+02 </wgt>
<wgt id='scales0.51.0'>  0.670483323E+02 </wgt>
<wgt id='scales1.00.5'>  0.642213601E+02 </wgt>
<wgt id='scales1.02.0'>  0.515003636E+02 </wgt>
<wgt id='scales2.01.0'>  0.495634579E+02 </wgt>
<wgt id='scales2.02.0'>  0.445413588E+02 </wgt>
</rwgt>
<scales uborns=' 0.106908731E+04'> </scales>
</event>
<event>
      5  10001  9.70067E+03  1.35085E+02  7.29735E-03  1.18225E-01
      21    -1     0     0   513   514  0.000000000E+00  0.000000000E+00  5.336113180E+02  5.336113180E+02  0.000000000E+00  0.00000E+00  9.000E+00
       2    -1     0     0   514     0  0.000000000E+00  0.000000000E+00 -8.872413152E+02  8.872413152E+02  0.000000000E+00  0.00000E+00  9.000E+00
       2     1     1     2   512     0  1.367948528E+02 -2.624687694E+02 -3.854314614E+02  4.859630624E+02  9.344061824E-06  0.00000E+00  9.000E+00
      21     1     1     2   513   512 -1.150892545E+02  4.205183462E+02  3.629693330E+02  5.672988213E+02  0.000000000E+00  0.00000E+00  9.000E+00
      22     1     1     2     0     0 -2.170559829E+01 -1.580495768E+02 -3.311678688E+02  3.675907494E+02  7.629394531E-06  0.00000E+00  9.000E+00
#rwgt            1         187   7.3669433524951059E-003        6024      907749           0
<rwgt>
<wgt id='central'>  0.970067396E+04 </wgt>
<wgt id='sudakovwgt'>  0.992492846E-03 </wgt>
<wgt id='scales0.50.5'>  0.126115061E+05 </wgt>
<wgt id='scales0.51.0'>  0.115589183E+05 </wgt>
<wgt id='scales1.00.5'>  0.105840405E+05 </wgt>
<wgt id='scales1.02.0'>  0.893414571E+04 </wgt>
<wgt id='scales2.01.0'>  0.826147621E+04 </wgt>
<wgt id='scales2.02.0'>  0.760867365E+04 </wgt>
</rwgt>
<scales uborns=' 0.441805678E+03'> </scales>
</event>
<event>
      5  10001  3.79765E+01  1.89300E+01  7.29735E-03  1.68363E-01
       1    -1     0     0   511     0  0.000000000E+00  0.000000000E+00  3.677343330E+02  3.677343330E+02  0.000000000E+00  0.00000E+00  9.000E+00
      -4    -1     0     0     0   511  0.000000000E+00  0.000000000E+00 -3.666305859E+03  3.666305859E+03  0.000000000E+00  0.00000E+00  9.000E+00
       1     1     1     2   513     0 -1.142208454E+03 -1.422367120E+02 -1.383844260E+03  1.799971214E+03  3.051757812E-05  0.00000E+00  9.000E+00
      22     1     1     2     0     0  3.789658449E+01  4.164652983E+00 -6.283978400E+01  7.350057077E+01  1.168007728E-06  0.00000E+00  9.000E+00
      -4     1     1     2     0   513  1.104311869E+03  1.380720591E+02 -1.851887482E+03  2.160568408E+03  3.051757812E-05  0.00000E+00  9.000E+00
#rwgt            1         143   1.7545177937347849E-005        6024      908094           0
<rwgt>
<wgt id='central'>  0.379764815E+02 </wgt>
<wgt id='sudakovwgt'>  0.170914868E-02 </wgt>
<wgt id='scales0.50.5'>  0.499679399E+02 </wgt>
<wgt id='scales0.51.0'>  0.443718180E+02 </wgt>
<wgt id='scales1.00.5'>  0.427660519E+02 </wgt>
<wgt id='scales1.02.0'>  0.339774442E+02 </wgt>
<wgt id='scales2.01.0'>  0.328828059E+02 </wgt>
<wgt id='scales2.02.0'>  0.294201336E+02 </wgt>
</rwgt>
<scales uborns=' 0.115103321E+04'> </scales>
</event>
<event>
      5  10001  2.46825E+02  8.73076E+00  7.29735E-03  2.02827E-01
       2    -1     0     0   511     0  0.000000000E+00  0.000000000E+00  1.599509741E+03  1.599509741E+03  0.000000000E+00  0.00000E+00  9.000E+00
       2    -1     0     0   512     0  0.000000000E+00  0.000000000E+00 -1.632844179E+03  1.632844179E+03  0.000000000E+00  0.00000E+00  9.000E+00
       2     1     1     2   512     0  8.251450750E+02  5.204486432E+01  1.371878845E+03  1.601756732E+03  3.051757812E-05  0.00000E+00  9.000E+00
       2     1     1     2   511     0 -7.439186437E+02 -5.121771623E+01 -1.254465010E+03  1.459356250E+03  2.642899792E-05  0.00000E+00  9.000E+00
      22     1     1     2     0     0 -8.122643133E+01 -8.271480865E-01 -1.507482726E+02  1.712409385E+02  1.907348633E-06  0.00000E+00  9.000E+00
#rwgt            1          97   3.7692871959406375E-003        6024      915742           0
<rwgt>
<wgt id='central'>  0.246824516E+03 </wgt>
<wgt id='sudakovwgt'>  0.400285945E-01 </wgt>
<wgt id='scales0.50.5'>  0.320053959E+03 </wgt>
<wgt id='scales0.51.0'>  0.290199023E+03 </wgt>
<wgt id='scales1.00.5'>  0.272217727E+03 </wgt>
<wgt id='scales1.02.0'>  0.225197432E+03 </wgt>
<wgt id='scales2.01.0'>  0.212585848E+03 </wgt>
<wgt id='scales2.02.0'>  0.193958420E+03 </wgt>
</rwgt>
<scales uborns=' 0.826836200E+03'> </scales>
</event>
<event>
      5  10001  5.80327E+00  1.70983E+01  7.29735E-03  1.72189E-01
       1    -1     0     0   511     0  0.000000000E+00  0.000000000E+00  1.078688405E+03  1.078688405E+03  0.000000000E+00  0.00000E+00  9.000E+00
      21    -1     0     0   514   511  0.000000000E+00  0.000000000E+00 -2.800704247E+03  2.800704247E+03  0.000000000E+00  0.00000E+00  9.000E+00
       1     1     1     2   513     0 -6.139008987E+02 -1.133789332E+03 -1.694109316E+02  1.300404794E+03  2.973262266E-05  0.00000E+00  9.000E+00
      21     1     1     2   514   513  7.697841411E+02  1.441379013E+03 -1.521531432E+03  2.232755916E+03  3.051757812E-05  0.00000E+00  9.000E+00
      22     1     1     2     0     0 -1.558832425E+02 -3.075896801E+02 -3.107347912E+01  3.462319421E+02  6.810596875E-06  0.00000E+00  9.000E+00
#rwgt            1         181   5.8270607190836782E-004        6024      983004           0
<rwgt>
<wgt id='central'>  0.580326502E+01 </wgt>
<wgt id='sudakovwgt'>  0.298885561E-01 </wgt>
<wgt id='scales0.50.5'>  0.815107475E+01 </wgt>
<wgt id='scales0.51.0'>  0.673927945E+01 </wgt>
<wgt id='scales1.00.5'>  0.701898294E+01 </wgt>
<wgt id='scales1.02.0'>  0.487239172E+01 </wgt>
<wgt id='scales2.01.0'>  0.505122429E+01 </wgt>
<wgt id='scales2.02.0'>  0.424097852E+01 </wgt>
</rwgt>
<scales uborns=' 0.163420234E+04'> </scales>
</event>
<event>
      5  10001  5.67504E+00  1.55094E+01  7.29735E-03  1.76028E-01
       1    -1     0     0   511     0  0.000000000E+00  0.000000000E+00  8.888993818E+02  8.888993818E+02  0.000000000E+00  0.00000E+00  9.000E+00
       2    -1     0     0   512     0  0.000000000E+00  0.000000000E+00 -3.259882118E+03  3.259882118E+03  0.000000000E+00  0.00000E+00  9.000E+00
       1     1     1     2   512     0  1.232578169E+03  1.083780687E+03 -6.353967849E+02  1.759988237E+03  2.018548058E-05  0.00000E+00  9.000E+00
       2     1     1     2   511     0 -6.273112672E+02 -5.428065505E+02 -8.710366459E+02  1.202856274E+03  1.078959322E-05  0.00000E+00  9.000E+00
      22     1     1     2     0     0 -6.052669018E+02 -5.409741369E+02 -8.645493050E+02  1.185936988E+03  2.854658040E-05  0.00000E+00  9.000E+00
#rwgt            1          96   1.8179564696071491E-003        6024      983395           0
<rwgt>
<wgt id='central'>  0.567503684E+01 </wgt>
<wgt id='sudakovwgt'>  0.382471706E-02 </wgt>
<wgt id='scales0.50.5'>  0.742458776E+01 </wgt>
<wgt id='scales0.51.0'>  0.658988832E+01 </wgt>
<wgt id='scales1.00.5'>  0.639386140E+01 </wgt>
<wgt id='scales1.02.0'>  0.507503273E+01 </wgt>
<wgt id='scales2.01.0'>  0.493991993E+01 </wgt>
<wgt id='scales2.02.0'>  0.441763500E+01 </wgt>
</rwgt>
<scales uborns=' 0.164132369E+04'> </scales>
</event>
<event>
      5  10001  8.42135E+05  6.69672E+00  7.29735E-03  2.18308E-01
       1    -1     0     0   512     0  0.000000000E+00  0.000000000E+00  9.438696613E+02  9.438696613E+02  0.000000000E+00  0.00000E+00  9.000E+00
      21    -1     0     0   513   514  0.000000000E+00  0.000000000E+00 -7.907875674E+01  7.907875674E+01  0.000000000E+00  0.00000E+00  9.000E+00
      22     1     1     2     0     0  8.625475156E+01 -1.117134755E+02  5.204321907E+02  5.392304219E+02  7.629394531E-06  0.00000E+00  9.000E+00
      21     1     1     2   512   514 -1.326096194E+02  1.614224333E+02  1.029000984E+02  2.328753816E+02  0.000000000E+00  0.00000E+00  9.000E+00
       1     1     1     2   513     0  4.635486783E+01 -4.970895778E+01  2.414586155E+02  2.508426145E+02  2.697398305E-06  0.00000E+00  9.000E+00
#rwgt            1         181   4.7270653730031986E-003        6024     1018507           0
<rwgt>
<wgt id='central'>  0.842134554E+06 </wgt>
<wgt id='sudakovwgt'>  0.551542426E-03 </wgt>
<wgt id='scales0.50.5'>  0.104982212E+07 </wgt>
<wgt id='scales0.51.0'>  0.102300992E+07 </wgt>
<wgt id='scales1.00.5'>  0.864206628E+06 </wgt>
<wgt id='scales1.02.0'>  0.817110554E+06 </wgt>
<wgt id='scales2.01.0'>  0.705836032E+06 </wgt>
<wgt id='scales2.02.0'>  0.684861775E+06 </wgt>
</rwgt>
<scales uborns=' 0.208974603E+03'> </scales>
</event>
<event>
      5  10001  9.79259E+04  9.07406E-01  7.29735E-03  7.37926E-01
      -2    -1     0     0     0   511  0.000000000E+00  0.000000000E+00  2.254733940E+02  2.254733940E+02  0.000000000E+00  0.00000E+00  9.000E+00
       3    -1     0     0   511     0  0.000000000E+00  0.000000000E+00 -5.630965320E+02  5.630965320E+02  0.000000000E+00  0.00000E+00  9.000E+00
       3     1     1     2   512     0  2.982389989E+02 -2.552878427E+01 -3.250199881E+02  4.418554197E+02  6.607249480E-06  0.00000E+00  9.000E+00
      -2     1     1     2     0   512 -2.987375748E+02  2.477062310E+01  3.257473996E+01  3.015275046E+02  7.340814742E-06  0.00000E+00  9.000E+00
      22     1     1     2     0     0  4.985759167E-01  7.581611709E-01 -4.517788990E+01  4.518700169E+01  0.000000000E+00  0.00000E+00  9.000E+00
#rwgt            1         166   3.0059210005248815E-005        6024     1018885           0
<rwgt>
<wgt id='central'>  0.979258618E+05 </wgt>
<wgt id='sudakovwgt'>  0.597213001E+00 </wgt>
<wgt id='scales0.50.5'>  0.118347102E+06 </wgt>
<wgt id='scales0.51.0'>  0.117798206E+06 </wgt>
<wgt id='scales1.00.5'>  0.983821988E+05 </wgt>
<wgt id='scales1.02.0'>  0.969704789E+05 </wgt>
<wgt id='scales2.01.0'>  0.827414180E+05 </wgt>
<wgt id='scales2.02.0'>  0.819341454E+05 </wgt>
</rwgt>
<scales uborns=' 0.299545871E+03'> </scales>
</event>
<event>
      5  10001  1.10140E+02  9.86598E+01  7.29735E-03  1.24092E-01
       2    -1     0     0   513     0  0.000000000E+00  0.000000000E+00  1.227070194E+03  1.227070194E+03  0.000000000E+00  0.00000E+00  9.000E+00
       2    -1     0     0   511     0  0.000000000E+00  0.000000000E+00 -9.601698426E+02  9.601698426E+02  0.000000000E+00  0.00000E+00  9.000E+00
       2     1     1     2   513     0 -6.372316534E+02  7.053006020E+02 -3.909468518E+02  1.027790134E+03  1.789251617E-05  0.00000E+00  9.000E+00
      22     1     1     2     0     0  3.105435007E+02 -3.267436699E+02  2.594096109E+02  5.200884904E+02  9.344061824E-06  0.00000E+00  9.000E+00
       2     1     1     2   511     0  3.266881527E+02 -3.785569321E+02  3.984375924E+02  6.393614119E+02  5.394796609E-06  0.00000E+00  9.000E+00
#rwgt            1          97   1.9418661509578161E-003        6024     1023202           0
<rwgt>
<wgt id='central'>  0.110139640E+03 </wgt>
<wgt id='sudakovwgt'>  0.103879491E-02 </wgt>
<wgt id='scales0.50.5'>  0.137792782E+03 </wgt>
<wgt id='scales0.51.0'>  0.129141845E+03 </wgt>
<wgt id='scales1.00.5'>  0.117518044E+03 </wgt>
<wgt id='scales1.02.0'>  0.103584235E+03 </wgt>
<wgt id='scales2.01.0'>  0.950815304E+02 </wgt>
<wgt id='scales2.02.0'>  0.894220769E+02 </wgt>
</rwgt>
<scales uborns=' 0.952159072E+03'> </scales>
</event>
<event>
      5  10001  1.35993E+02  8.09628E+01  7.29735E-03  1.28098E-01
       2    -1     0     0   514     0  0.000000000E+00  0.000000000E+00  1.314704460E+03  1.314704460E+03  0.000000000E+00  0.00000E+00  9.000E+00
      21    -1     0     0   513   514  0.000000000E+00  0.000000000E+00 -8.005492918E+02  8.005492918E+02  0.000000000E+00  0.00000E+00  9.000E+00
       2     1     1     2   512     0 -4.428130149E+02  8.077993249E+02  5.333962021E+02  1.064487963E+03  2.018548058E-05  0.00000E+00  9.000E+00
      21     1     1     2   513   512  3.678779890E+02 -8.384540653E+02 -1.178675374E+02  9.231642274E+02  2.747509058E-05  0.00000E+00  9.000E+00
      22     1     1     2     0     0  7.493502599E+01  3.065474036E+01  9.862650329E+01  1.276015610E+02  1.907348633E-06  0.00000E+00  9.000E+00
#rwgt            1         182   5.7340091641493625E-003        6024     1036134           0
<rwgt>
<wgt id='central'>  0.135993406E+03 </wgt>
<wgt id='sudakovwgt'>  0.282002384E-01 </wgt>
<wgt id='scales0.50.5'>  0.177453146E+03 </wgt>
<wgt id='scales0.51.0'>  0.159567949E+03 </wgt>
<wgt id='scales1.00.5'>  0.151235796E+03 </wgt>
<wgt id='scales1.02.0'>  0.123094031E+03 </wgt>
<wgt id='scales2.01.0'>  0.117329327E+03 </wgt>
<wgt id='scales2.02.0'>  0.106200612E+03 </wgt>
</rwgt>
<scales uborns=' 0.917515959E+03'> </scales>
</event>
<event>
      5  10001  4.00194E+02  1.88868E+01  7.29735E-03  1.68447E-01
       2    -1     0     0   512     0  0.000000000E+00  0.000000000E+00  2.435115979E+03  2.435115979E+03  0.000000000E+00  0.00000E+00  9.000E+00
      21    -1     0     0   511   514  0.000000000E+00  0.000000000E+00 -2.653730322E+02  2.653730322E+02  0.000000000E+00  0.00000E+00  9.000E+00
       2     1     1     2   511     0 -4.715290186E+02  1.755064735E+02  4.420305799E+02  6.697261912E+02  5.394796609E-06  0.00000E+00  9.000E+00
      21     1     1     2   512   514  7.089265790E+02 -2.745564381E+02  1.522312803E+03  1.701585849E+03  0.000000000E+00  0.00000E+00  9.000E+00
      22     1     1     2     0     0 -2.373975603E+02  9.904996466E+01  2.053995638E+02  3.291769706E+02  3.814697266E-06  0.00000E+00  9.000E+00
#rwgt            1         182   4.3754708342401832E-003        6024     1037470           0
<rwgt>
<wgt id='central'>  0.400193594E+03 </wgt>
<wgt id='sudakovwgt'>  0.161183782E+00 </wgt>
<wgt id='scales0.50.5'>  0.523906881E+03 </wgt>
<wgt id='scales0.51.0'>  0.471302906E+03 </wgt>
<wgt id='scales1.00.5'>  0.444861230E+03 </wgt>
<wgt id='scales1.02.0'>  0.362101272E+03 </wgt>
<wgt id='scales2.01.0'>  0.344194273E+03 </wgt>
<wgt id='scales2.02.0'>  0.311431916E+03 </wgt>
</rwgt>
<scales uborns=' 0.760436685E+03'> </scales>
</event>
<event>
      5  10001  5.52841E+02  6.24290E+02  7.29735E-03  9.61879E-02
       2    -1     0     0   511     0  0.000000000E+00  0.000000000E+00  2.893972034E+02  2.893972034E+02  0.000000000E+00  0.00000E+00  9.000E+00
       3    -1     0     0   513     0  0.000000000E+00  0.000000000E+00 -1.934660429E+03  1.934660429E+03  0.000000000E+00  0.00000E+00  9.000E+00
       2     1     1     2   513     0  3.010378798E+02  5.791638159E+02 -4.682592947E+02  8.033189265E+02  1.206313194E-05  0.00000E+00  9.000E+00
       3     1     1     2   511     0 -2.653036549E+02 -5.693875746E+01 -4.347017148E+02  5.124389059E+02  5.394796609E-06  0.00000E+00  9.000E+00
      22     1     1     2     0     0 -3.573422491E+01 -5.222250584E+02 -7.423022160E+02  9.082997998E+02  1.525878906E-05  0.00000E+00  9.000E+00
#rwgt            1         102   4.2919792418851674E-005        6024     1041053           0
<rwgt>
<wgt id='central'>  0.552840631E+03 </wgt>
<wgt id='sudakovwgt'>  0.806824889E-04 </wgt>
<wgt id='scales0.50.5'>  0.681456810E+03 </wgt>
<wgt id='scales0.51.0'>  0.651807175E+03 </wgt>
<wgt id='scales1.00.5'>  0.577988827E+03 </wgt>
<wgt id='scales1.02.0'>  0.529699209E+03 </wgt>
<wgt id='scales2.01.0'>  0.475028279E+03 </wgt>
<wgt id='scales2.02.0'>  0.455143710E+03 </wgt>
</rwgt>
<scales uborns=' 0.719241725E+03'> </scales>
</event>
<event>
      5  10001  3.31866E+00  2.22376E+02  7.29735E-03  1.09997E-01
       2    -1     0     0   502     0  0.000000000E+00  0.000000000E+00  2.671712232E+03  2.671712232E+03  0.000000000E+00  0.00000E+00  9.000E+00
      21    -1     0     0   501   502  0.000000000E+00  0.000000000E+00 -1.285560303E+03  1.285560303E+03  0.000000000E+00  0.00000E+00  9.000E+00
      22     1     1     2     0     0 -3.029792062E+02 -1.773207035E+03  1.021320019E+03  2.068611653E+03  4.037096117E-05  0.00000E+00  9.000E+00
       2     1     1     2   511     0  3.726023721E+02  1.450796308E+03  4.167101217E+02  1.554763577E+03  4.855316948E-05  0.00000E+00  9.000E+00
      21     1     1     2   501   511 -6.962316585E+01  3.224107272E+02 -5.187821151E+01  3.338973062E+02  9.172145873E-06  0.00000E+00  9.000E+00
#rwgt            1          12   4.8780674591258265E-005        6024     1043326           0
<rwgt>
<wgt id='central'>  0.331866284E+01 </wgt>
<wgt id='sudakovwgt'>  0.100000000E+01 </wgt>
<wgt id='scales0.50.5'>  0.408522524E+01 </wgt>
<wgt id='scales0.51.0'>  0.377966761E+01 </wgt>
<wgt id='scales1.00.5'>  0.359222091E+01 </wgt>
<wgt id='scales1.02.0'>  0.308197089E+01 </wgt>
<wgt id='scales2.01.0'>  0.311543049E+01 </wgt>
<wgt id='scales2.02.0'>  0.287852142E+01 </wgt>
</rwgt>
<scales uborns=' 0.182519352E+04'> </scales>
</event>
<event>
      5  10001  2.88536E+01  1.15705E+02  7.29735E-03  1.21044E-01
       2    -1     0     0   513     0  0.000000000E+00  0.000000000E+00  1.097551341E+03  1.097551341E+03  0.000000000E+00  0.00000E+00  9.000E+00
       1    -1     0     0   512     0  0.000000000E+00  0.000000000E+00 -1.751737920E+03  1.751737920E+03  0.000000000E+00  0.00000E+00  9.000E+00
      22     1     1     2     0     0  2.867958119E+02 -1.292584303E+02  1.218544713E+02  3.373545489E+02  8.844011779E-06  0.00000E+00  9.000E+00
       1     1     1     2   513     0 -1.129560488E+03  4.310013690E+02 -1.022572099E+03  1.583452801E+03  1.078959322E-05  0.00000E+00  9.000E+00
       2     1     1     2   512     0  8.427646758E+02 -3.017429388E+02  2.465310499E+02  9.284819107E+02  1.748113897E-05  0.00000E+00  9.000E+00
#rwgt            1          92   1.8535364345759822E-003        6024     1044196           0
<rwgt>
<wgt id='central'>  0.288535698E+02 </wgt>
<wgt id='sudakovwgt'>  0.747834948E-03 </wgt>
<wgt id='scales0.50.5'>  0.370114672E+02 </wgt>
<wgt id='scales0.51.0'>  0.336823439E+02 </wgt>
<wgt id='scales1.00.5'>  0.317054560E+02 </wgt>
<wgt id='scales1.02.0'>  0.264081967E+02 </wgt>
<wgt id='scales2.01.0'>  0.250026983E+02 </wgt>
<wgt id='scales2.02.0'>  0.228836670E+02 </wgt>
</rwgt>
<scales uborns=' 0.120977610E+04'> </scales>
</event>
<event>
      4  10001  1.85223E+03  8.94427E-01  7.29735E-03  7.52633E-01
       2    -1     0     0   512     0  0.000000000E+00  0.000000000E+00  2.206272379E+03  2.206272379E+03  0.000000000E+00  0.00000E+00  9.000E+00
      21    -1     0     0   511   514  0.000000000E+00  0.000000000E+00 -1.891056032E+02  1.891056032E+02  0.000000000E+00  0.00000E+00  9.000E+00
       2     1     1     2   511     0  4.728054798E+01  5.829334462E+02  5.002024726E+02  7.695773948E+02  1.078959322E-05  0.00000E+00  9.000E+00
      21     1     1     2   512   514 -4.728054798E+01 -5.829334462E+02  1.516964304E+03  1.625800588E+03  2.157918644E-05  0.00000E+00  9.000E+00
#rwgt            1         182   3.5182954482631790E-003        6024     1050262           0
<rwgt>
<wgt id='central'>  0.185222568E+04 </wgt>
<wgt id='sudakovwgt'>  0.515449540E+02 </wgt>
<wgt id='scales0.50.5'>  0.239945325E+04 </wgt>
<wgt id='scales0.51.0'>  0.219327648E+04 </wgt>
<wgt id='scales1.00.5'>  0.202634703E+04 </wgt>
<wgt id='scales1.02.0'>  0.169977406E+04 </wgt>
<wgt id='scales2.01.0'>  0.158572965E+04 </wgt>
<wgt id='scales2.02.0'>  0.145520919E+04 </wgt>
</rwgt>
<scales uborns=' 0.584847718E+03'> </scales>
</event>
<event>
      5  10001  5.01995E+00  3.34344E+01  7.29735E-03  1.49841E-01
      -1    -1     0     0     0   513  0.000000000E+00  0.000000000E+00  1.160893567E+03  1.160893567E+03  0.000000000E+00  0.00000E+00  9.000E+00
       1    -1     0     0   513     0  0.000000000E+00  0.000000000E+00 -2.937645563E+03  2.937645563E+03  0.000000000E+00  0.00000E+00  9.000E+00
       1     1     1     2   512     0 -1.682196735E+02 -1.659711433E+03 -1.680418577E+03  2.367856941E+03  5.285799584E-05  0.00000E+00  9.000E+00
      -1     1     1     2     0   512  1.919033312E+02  1.683311032E+03 -8.963915429E+01  1.696584244E+03  3.754619538E-05  0.00000E+00  9.000E+00
      22     1     1     2     0     0 -2.368365773E+01 -2.359959877E+01 -6.694264039E+00  3.409794535E+01  9.499417216E-07  0.00000E+00  9.000E+00
#rwgt            1          66   1.5273033756130224E-004        6024     1068347           0
<rwgt>
<wgt id='central'>  0.501994810E+01 </wgt>
<wgt id='sudakovwgt'>  0.294086718E-01 </wgt>
<wgt id='scales0.50.5'>  0.677522323E+01 </wgt>
<wgt id='scales0.51.0'>  0.582686701E+01 </wgt>
<wgt id='scales1.00.5'>  0.583697582E+01 </wgt>
<wgt id='scales1.02.0'>  0.435980822E+01 </wgt>
<wgt id='scales2.01.0'>  0.437118660E+01 </wgt>
<wgt id='scales2.02.0'>  0.379635958E+01 </wgt>
</rwgt>
<scales uborns=' 0.168113926E+04'> </scales>
</event>
<event>
      5  10001  1.21018E+01  1.14040E+02  7.29735E-03  1.21315E-01
       2    -1     0     0   512     0  0.000000000E+00  0.000000000E+00  3.191527282E+03  3.191527282E+03  0.000000000E+00  0.00000E+00  9.000E+00
      21    -1     0     0   511   514  0.000000000E+00  0.000000000E+00 -6.717811009E+02  6.717811009E+02  0.000000000E+00  0.00000E+00  9.000E+00
      22     1     1     2     0     0 -1.281504066E+03 -5.286218013E+02  1.725131437E+03  2.213091086E+03  4.825252777E-05  0.00000E+00  9.000E+00
      21     1     1     2   512   514  1.297825644E+03  4.626602325E+02  7.664727587E+02  1.576669396E+03  1.525878906E-05  0.00000E+00  9.000E+00
       2     1     1     2   511     0 -1.632157810E+01  6.596156873E+01  2.814198599E+01  7.354790164E+01  4.768371582E-07  0.00000E+00  9.000E+00
#rwgt            1         182   8.4139140298751976E-003        6024     1077856           0
<rwgt>
<wgt id='central'>  0.121017847E+02 </wgt>
<wgt id='sudakovwgt'>  0.821437349E-03 </wgt>
<wgt id='scales0.50.5'>  0.163154902E+02 </wgt>
<wgt id='scales0.51.0'>  0.140872472E+02 </wgt>
<wgt id='scales1.00.5'>  0.140159959E+02 </wgt>
<wgt id='scales1.02.0'>  0.105496685E+02 </wgt>
<wgt id='scales2.01.0'>  0.105120079E+02 </wgt>
<wgt id='scales2.02.0'>  0.916377716E+01 </wgt>
</rwgt>
<scales uborns=' 0.142027978E+04'> </scales>
</event>
<event>
      4  10001  1.65177E+03  8.94427E-01  7.29735E-03  7.45493E-01
      21    -1     0     0   513   511  0.000000000E+00  0.000000000E+00  3.000001786E+02  3.000001786E+02  0.000000000E+00  0.00000E+00  9.000E+00
      -3    -1     0     0     0   513  0.000000000E+00  0.000000000E+00 -1.205260445E+03  1.205260445E+03  0.000000000E+00  0.00000E+00  9.000E+00
      -3     1     1     2     0   514 -5.383186139E+02  2.566470209E+02 -5.489637688E+02  8.105651379E+02  1.078959322E-05  0.00000E+00  9.000E+00
      21     1     1     2   514   511  5.383186139E+02 -2.566470209E+02 -3.562964974E+02  6.946954854E+02  1.375408659E-05  0.00000E+00  9.000E+00
#rwgt            1         198   2.6710683285370020E-004        6024     1079506           0
<rwgt>
<wgt id='central'>  0.165177071E+04 </wgt>
<wgt id='sudakovwgt'>  0.199095980E+01 </wgt>
<wgt id='scales0.50.5'>  0.212037010E+04 </wgt>
<wgt id='scales0.51.0'>  0.195508873E+04 </wgt>
<wgt id='scales1.00.5'>  0.179140909E+04 </wgt>
<wgt id='scales1.02.0'>  0.152648944E+04 </wgt>
<wgt id='scales2.01.0'>  0.141460960E+04 </wgt>
<wgt id='scales2.02.0'>  0.130731677E+04 </wgt>
</rwgt>
<scales uborns=' 0.596367859E+03'> </scales>
</event>
<event>
      5  10001  4.58665E+01  1.17176E+00  7.29735E-03  5.50139E-01
      21    -1     0     0   512   515  0.000000000E+00  0.000000000E+00  1.046970351E+03  1.046970351E+03  0.000000000E+00  0.00000E+00  9.000E+00
       1    -1     0     0   511     0  0.000000000E+00  0.000000000E+00 -1.249639143E+03  1.249639143E+03  0.000000000E+00  0.00000E+00  9.000E+00
       1     1     1     2   512     0  5.773931746E+02 -9.512151773E+02 -2.779756664E+02  1.146936643E+03  4.230703929E-05  0.00000E+00  9.000E+00
      21     1     1     2   511   515 -5.762618146E+02  9.515202256E+02  1.073728270E+02  1.117585497E+03  2.199661750E-05  0.00000E+00  9.000E+00
      22     1     1     2     0     0 -1.131359980E+00 -3.050482869E-01 -3.206595191E+01  3.208735424E+01  4.768371582E-07  0.00000E+00  9.000E+00
#rwgt            1         186   2.0925043565414043E-003        6024     1080129           0
<rwgt>
<wgt id='central'>  0.458665090E+02 </wgt>
<wgt id='sudakovwgt'>  0.511664322E-01 </wgt>
<wgt id='scales0.50.5'>  0.608514672E+02 </wgt>
<wgt id='scales0.51.0'>  0.536237016E+02 </wgt>
<wgt id='scales1.00.5'>  0.520486974E+02 </wgt>
<wgt id='scales1.02.0'>  0.407562125E+02 </wgt>
<wgt id='scales2.01.0'>  0.396935688E+02 </wgt>
<wgt id='scales2.02.0'>  0.352710480E+02 </wgt>
</rwgt>
<scales uborns=' 0.111257828E+04'> </scales>
</event>
<event>
      5  10001  1.67507E+01  1.35607E+02  7.29735E-03  1.18157E-01
       2    -1     0     0   512     0  0.000000000E+00  0.000000000E+00  7.464555458E+02  7.464555458E+02  0.000000000E+00  0.00000E+00  9.000E+00
       1    -1     0     0   513     0  0.000000000E+00  0.000000000E+00 -3.141823634E+03  3.141823634E+03  0.000000000E+00  0.00000E+00  9.000E+00
       2     1     1     2   513     0 -5.885147749E+02 -1.138881810E+03 -9.400390477E+02  1.589677587E+03  2.157918644E-05  0.00000E+00  9.000E+00
       1     1     1     2   512     0  5.698999442E+02  1.273204666E+03 -1.584696812E+03  2.111184514E+03  3.737624730E-05  0.00000E+00  9.000E+00
      22     1     1     2     0     0  1.861483073E+01 -1.343228558E+02  1.293677709E+02  1.874170794E+02  0.000000000E+00  0.00000E+00  9.000E+00
#rwgt            1          92   4.3339333199746762E-004        6024     1081780           0
<rwgt>
<wgt id='central'>  0.167506777E+02 </wgt>
<wgt id='sudakovwgt'>  0.396566365E-01 </wgt>
<wgt id='scales0.50.5'>  0.219750273E+02 </wgt>
<wgt id='scales0.51.0'>  0.195194239E+02 </wgt>
<wgt id='scales1.00.5'>  0.188579894E+02 </wgt>
<wgt id='scales1.02.0'>  0.149925648E+02 </wgt>
<wgt id='scales2.01.0'>  0.145370619E+02 </wgt>
<wgt id='scales2.02.0'>  0.130112677E+02 </wgt>
</rwgt>
<scales uborns=' 0.133674922E+04'> </scales>
</event>
<event>
      5  10001  3.77255E-01  9.23992E+01  7.29735E-03  1.25392E-01
      21    -1     0     0   511   513  0.000000000E+00  0.000000000E+00  2.193923233E+03  2.193923233E+03  0.000000000E+00  0.00000E+00  9.000E+00
       1    -1     0     0   514     0  0.000000000E+00  0.000000000E+00 -4.063084251E+03  4.063084251E+03  0.000000000E+00  0.00000E+00  9.000E+00
       1     1     1     2   511     0  3.091134673E+01  2.940041472E+03 -1.194235420E+03  3.173483513E+03  8.495734196E-05  0.00000E+00  9.000E+00
      21     1     1     2   514   513  3.180946438E+01 -2.940357788E+03 -6.324542881E+02  3.007775622E+03  2.750817318E-05  0.00000E+00  9.000E+00
      22     1     1     2     0     0 -6.272081111E+01  3.163163853E-01 -4.247131013E+01  7.574834907E+01  1.719260824E-06  0.00000E+00  9.000E+00
#rwgt            1         186   9.3299779525530017E-004        6024     1086918           0
<rwgt>
<wgt id='central'>  0.377254571E+00 </wgt>
<wgt id='sudakovwgt'>  0.281947912E-01 </wgt>
<wgt id='scales0.50.5'>  0.542529992E+00 </wgt>
<wgt id='scales0.51.0'>  0.434019618E+00 </wgt>
<wgt id='scales1.00.5'>  0.471573504E+00 </wgt>
<wgt id='scales1.02.0'>  0.306518046E+00 </wgt>
<wgt id='scales2.01.0'>  0.331030721E+00 </wgt>
<wgt id='scales2.02.0'>  0.268961021E+00 </wgt>
</rwgt>
<scales uborns=' 0.297231908E+04'> </scales>
</event>
<event>
      5  10001  1.49490E+00  2.73283E+01  7.29735E-03  1.55907E-01
       1    -1     0     0   511     0  0.000000000E+00  0.000000000E+00  1.899361001E+03  1.899361001E+03  0.000000000E+00  0.00000E+00  9.000E+00
       1    -1     0     0   512     0  0.000000000E+00  0.000000000E+00 -3.325426101E+03  3.325426101E+03  0.000000000E+00  0.00000E+00  9.000E+00
       1     1     1     2   512     0  9.719512542E+02  1.922257328E+03  6.327366297E+02  2.245020739E+03  3.578503235E-05  0.00000E+00  9.000E+00
      22     1     1     2     0     0 -4.212086786E+02 -8.483088558E+02 -8.917317001E+02  1.300857444E+03  1.868812365E-05  0.00000E+00  9.000E+00
       1     1     1     2   511     0 -5.507425756E+02 -1.073948472E+03 -1.167070030E+03  1.678908919E+03  4.315837288E-05  0.00000E+00  9.000E+00
#rwgt            1          91   5.1589646474389760E-003        6024     1087378           0
<rwgt>
<wgt id='central'>  0.149489871E+01 </wgt>
<wgt id='sudakovwgt'>  0.133894821E-02 </wgt>
<wgt id='scales0.50.5'>  0.204318608E+01 </wgt>
<wgt id='scales0.51.0'>  0.172825737E+01 </wgt>
<wgt id='scales1.00.5'>  0.176730557E+01 </wgt>
<wgt id='scales1.02.0'>  0.127839143E+01 </wgt>
<wgt id='scales2.01.0'>  0.130620048E+01 </wgt>
<wgt id='scales2.02.0'>  0.111702154E+01 </wgt>
</rwgt>
<scales uborns=' 0.215406029E+04'> </scales>
</event>
<event>
      5  10001  4.21568E+00  6.48993E+01  7.29735E-03  1.32906E-01
      21    -1     0     0   512   514  0.000000000E+00  0.000000000E+00  1.314758022E+03  1.314758022E+03  0.000000000E+00  0.00000E+00  9.000E+00
       1    -1     0     0   514     0  0.000000000E+00  0.000000000E+00 -3.197507346E+03  3.197507346E+03  0.000000000E+00  0.00000E+00  9.000E+00
       1     1     1     2   513     0  2.206492220E+02 -1.744497610E+03 -1.462610399E+03  2.287178867E+03  3.737624730E-05  0.00000E+00  9.000E+00
      21     1     1     2   512   513 -1.631130826E+02  1.714472404E+03  7.680188172E+01  1.723925762E+03  4.012238306E-05  0.00000E+00  9.000E+00
      22     1     1     2     0     0 -5.753613945E+01  3.002520532E+01 -4.969408074E+02  5.011607391E+02  9.344061824E-06  0.00000E+00  9.000E+00
#rwgt            1         186   1.8035806264356195E-003        6024     1090371           0
<rwgt>
<wgt id='central'>  0.421567669E+01 </wgt>
<wgt id='sudakovwgt'>  0.253364774E-01 </wgt>
<wgt id='scales0.50.5'>  0.582233957E+01 </wgt>
<wgt id='scales0.51.0'>  0.489053030E+01 </wgt>
<wgt id='scales1.00.5'>  0.501890777E+01 </wgt>
<wgt id='scales1.02.0'>  0.358316961E+01 </wgt>
<wgt id='scales2.01.0'>  0.367265582E+01 </wgt>
<wgt id='scales2.02.0'>  0.312161946E+01 </wgt>
</rwgt>
<scales uborns=' 0.174001636E+04'> </scales>
</event>
<event>
      5  10001  6.51707E+03  1.46781E+02  7.29735E-03  1.16768E-01
      -1    -1     0     0     0   511  0.000000000E+00  0.000000000E+00  5.801110838E+02  5.801110838E+02  0.000000000E+00  0.00000E+00  9.000E+00
       2    -1     0     0   511     0  0.000000000E+00  0.000000000E+00 -4.186661369E+02  4.186661369E+02  0.000000000E+00  0.00000E+00  9.000E+00
      22     1     1     2     0     0 -1.266459595E+02 -1.832676046E+02  1.358525168E+01  2.231832723E+02  4.492150231E-06  0.00000E+00  9.000E+00
      -1     1     1     2     0   512  3.457593117E+02  3.094999135E+02  2.186775060E+02  5.129907892E+02  5.394796609E-06  0.00000E+00  9.000E+00
       2     1     1     2   512     0 -2.191133522E+02 -1.262323090E+02 -7.081781077E+01  2.626031593E+02  7.325311420E-06  0.00000E+00  9.000E+00
#rwgt            1         161   1.7440763576922301E-004        6024     1090584           0
<rwgt>
<wgt id='central'>  0.651706755E+04 </wgt>
<wgt id='sudakovwgt'>  0.153012792E-02 </wgt>
<wgt id='scales0.50.5'>  0.805555439E+04 </wgt>
<wgt id='scales0.51.0'>  0.775351463E+04 </wgt>
<wgt id='scales1.00.5'>  0.677094380E+04 </wgt>
<wgt id='scales1.02.0'>  0.627672379E+04 </wgt>
<wgt id='scales2.01.0'>  0.555735430E+04 </wgt>
<wgt id='scales2.02.0'>  0.535240191E+04 </wgt>
</rwgt>
<scales uborns=' 0.472496751E+03'> </scales>
</event>
<event>
      5  10001  3.76163E+02  3.82239E+01  7.29735E-03  1.46074E-01
       2    -1     0     0   514     0  0.000000000E+00  0.000000000E+00  2.722864046E+03  2.722864046E+03  0.000000000E+00  0.00000E+00  9.000E+00
      21    -1     0     0   512   514  0.000000000E+00  0.000000000E+00 -2.798966185E+02  2.798966185E+02  0.000000000E+00  0.00000E+00  9.000E+00
       2     1     1     2   513     0  7.315454529E+02 -1.744254369E+02  1.441989095E+03  1.626319628E+03  2.642899792E-05  0.00000E+00  9.000E+00
      21     1     1     2   512   513 -7.683132483E+02  1.639756553E+02  6.396239180E+02  1.013070590E+03  2.750817318E-05  0.00000E+00  9.000E+00
      22     1     1     2     0     0  3.676779532E+01  1.044978167E+01  3.613544143E+02  3.633704466E+02  3.814697266E-06  0.00000E+00  9.000E+00
#rwgt            1         182   1.1160123806375856E-002        6024     1091878           0
<rwgt>
<wgt id='central'>  0.376162699E+03 </wgt>
<wgt id='sudakovwgt'>  0.396918879E-01 </wgt>
<wgt id='scales0.50.5'>  0.492219384E+03 </wgt>
<wgt id='scales0.51.0'>  0.442906863E+03 </wgt>
<wgt id='scales1.00.5'>  0.418044370E+03 </wgt>
<wgt id='scales1.02.0'>  0.340443886E+03 </wgt>
<wgt id='scales2.01.0'>  0.323584737E+03 </wgt>
<wgt id='scales2.02.0'>  0.292858270E+03 </wgt>
</rwgt>
<scales uborns=' 0.768615622E+03'> </scales>
</event>
<event>
      5  10001  5.86519E+02  1.20984E+01  7.29735E-03  1.86656E-01
      21    -1     0     0   511   515  0.000000000E+00  0.000000000E+00  8.505933153E+02  8.505933153E+02  0.000000000E+00  0.00000E+00  9.000E+00
       2    -1     0     0   513     0  0.000000000E+00  0.000000000E+00 -8.843780898E+02  8.843780898E+02  0.000000000E+00  0.00000E+00  9.000E+00
      22     1     1     2     0     0  2.190196057E+02  6.775725682E+01 -1.605482387E+02  2.798863528E+02  0.000000000E+00  0.00000E+00  9.000E+00
      21     1     1     2   513   515 -6.814358128E+02 -2.061885053E+02  4.785233653E+02  8.578187908E+02  0.000000000E+00  0.00000E+00  9.000E+00
       2     1     1     2   511     0  4.624162070E+02  1.384312484E+02 -3.517599012E+02  5.972662615E+02  9.344061824E-06  0.00000E+00  9.000E+00
#rwgt            1         187   5.5440166487526199E-003        6024     1093917           0
<rwgt>
<wgt id='central'>  0.586518886E+03 </wgt>
<wgt id='sudakovwgt'>  0.193175304E+00 </wgt>
<wgt id='scales0.50.5'>  0.765465456E+03 </wgt>
<wgt id='scales0.51.0'>  0.691657503E+03 </wgt>
<wgt id='scales1.00.5'>  0.649107444E+03 </wgt>
<wgt id='scales1.02.0'>  0.533304153E+03 </wgt>
<wgt id='scales2.01.0'>  0.503877713E+03 </wgt>
<wgt id='scales2.02.0'>  0.458160907E+03 </wgt>
</rwgt>
<scales uborns=' 0.711963189E+03'> </scales>
</event>
<event>
      5  10001  4.70637E+02  1.72193E+02  7.29735E-03  1.14067E-01
       1    -1     0     0   514     0  0.000000000E+00  0.000000000E+00  2.603205630E+03  2.603205630E+03  0.000000000E+00  0.00000E+00  9.000E+00
      21    -1     0     0   511   512  0.000000000E+00  0.000000000E+00 -2.100910943E+02  2.100910943E+02  0.000000000E+00  0.00000E+00  9.000E+00
      22     1     1     2     0     0 -1.273987998E+02  4.860540559E+01  2.802117332E+02  3.116272695E+02  5.394796609E-06  0.00000E+00  9.000E+00
      21     1     1     2   514   512  6.681042636E+02 -3.114712495E+02  1.212656912E+03  1.419124530E+03  1.525878906E-05  0.00000E+00  9.000E+00
       1     1     1     2   511     0 -5.407054637E+02  2.628658439E+02  9.002458904E+02  1.082544924E+03  1.078959322E-05  0.00000E+00  9.000E+00
#rwgt            1         181   2.7413960124354447E-003        6024     1095515           0
<rwgt>
<wgt id='central'>  0.470637180E+03 </wgt>
<wgt id='sudakovwgt'>  0.316277752E-01 </wgt>
<wgt id='scales0.50.5'>  0.624593265E+03 </wgt>
<wgt id='scales0.51.0'>  0.554575304E+03 </wgt>
<wgt id='scales1.00.5'>  0.530057322E+03 </wgt>
<wgt id='scales1.02.0'>  0.420551959E+03 </wgt>
<wgt id='scales2.01.0'>  0.404587021E+03 </wgt>
<wgt id='scales2.02.0'>  0.361530998E+03 </wgt>
</rwgt>
<scales uborns=' 0.739459745E+03'> </scales>
</event>
<event>
      4  10001  7.86307E+06  8.94427E-01  7.29735E-03  7.52598E-01
       2    -1     0     0   512     0  0.000000000E+00  0.000000000E+00  8.387619205E+02  8.387619205E+02  0.000000000E+00  0.00000E+00  9.000E+00
      21    -1     0     0   515   512  0.000000000E+00  0.000000000E+00 -1.973454144E+02  1.973454144E+02  0.000000000E+00  0.00000E+00  9.000E+00
       2     1     1     2   513     0 -1.299629045E+02 -6.179610988E+01  8.052723226E+02  8.180297240E+02  1.525878906E-05  0.00000E+00  9.000E+00
      21     1     1     2   515   513  1.299629045E+02  6.179610988E+01 -1.638558165E+02  2.180776108E+02  5.722045898E-06  0.00000E+00  9.000E+00
#rwgt            1         182   8.3272460921557101E-003        6024     1095721           0
<rwgt>
<wgt id='central'>  0.786306531E+07 </wgt>
<wgt id='sudakovwgt'>  0.580050437E+01 </wgt>
<wgt id='scales0.50.5'>  0.101154001E+08 </wgt>
<wgt id='scales0.51.0'>  0.966103503E+07 </wgt>
<wgt id='scales1.00.5'>  0.823287559E+07 </wgt>
<wgt id='scales1.02.0'>  0.749768361E+07 </wgt>
<wgt id='scales2.01.0'>  0.652981015E+07 </wgt>
<wgt id='scales2.02.0'>  0.622637857E+07 </wgt>
</rwgt>
<scales uborns=' 0.143906622E+03'> </scales>
</event>
<event>
      5  10001  2.31277E+06  1.08852E+02  7.29735E-03  1.22193E-01
       2    -1     0     0   513     0  0.000000000E+00  0.000000000E+00  1.648106709E+03  1.648106709E+03  0.000000000E+00  0.00000E+00  9.000E+00
      21    -1     0     0   511   512  0.000000000E+00  0.000000000E+00 -4.088522192E+01  4.088522192E+01  0.000000000E+00  0.00000E+00  9.000E+00
      22     1     1     2     0     0 -6.813203797E+01 -2.015126486E+01  1.019439128E+03  1.021912023E+03  1.525878906E-05  0.00000E+00  9.000E+00
      21     1     1     2   513   512  1.200368938E+02  1.124529127E+02  1.718544869E+02  2.378833288E+02  2.697398305E-06  0.00000E+00  9.000E+00
       2     1     1     2   511     0 -5.190485587E+01 -9.230164785E+01  4.159278725E+02  4.291965789E+02  5.394796609E-06  0.00000E+00  9.000E+00
#rwgt            1         182   1.6613682251415934E-002        6024     1112584           0
<rwgt>
<wgt id='central'>  0.231276690E+07 </wgt>
<wgt id='sudakovwgt'>  0.503533281E-03 </wgt>
<wgt id='scales0.50.5'>  0.286836253E+07 </wgt>
<wgt id='scales0.51.0'>  0.282352041E+07 </wgt>
<wgt id='scales1.00.5'>  0.234950057E+07 </wgt>
<wgt id='scales1.02.0'>  0.226191492E+07 </wgt>
<wgt id='scales2.01.0'>  0.193059350E+07 </wgt>
<wgt id='scales2.02.0'>  0.188814203E+07 </wgt>
</rwgt>
<scales uborns=' 0.176522088E+03'> </scales>
</event>
<event>
      5  10001  1.08740E+02  5.72474E+02  7.29735E-03  9.72101E-02
      -4    -1     0     0     0   511  0.000000000E+00  0.000000000E+00  4.701203966E+02  4.701203966E+02  0.000000000E+00  0.00000E+00  9.000E+00
       1    -1     0     0   511     0  0.000000000E+00  0.000000000E+00 -2.153497125E+03  2.153497125E+03  0.000000000E+00  0.00000E+00  9.000E+00
       1     1     1     2   513     0  5.689517805E+02  6.436232749E+02 -1.131937999E+03  1.420999888E+03  2.157918644E-05  0.00000E+00  9.000E+00
      -4     1     1     2     0   513 -1.242943968E+02 -4.519767569E+02  1.795894053E-02  4.687558919E+02  1.561684326E-05  0.00000E+00  9.000E+00
      22     1     1     2     0     0 -4.446573837E+02 -1.916465180E+02 -5.514566882E+02  7.338617416E+02  1.078959322E-05  0.00000E+00  9.000E+00
#rwgt            1         173   6.8659791953048409E-005        6024     1113012           0
<rwgt>
<wgt id='central'>  0.108739726E+03 </wgt>
<wgt id='sudakovwgt'>  0.135125268E-02 </wgt>
<wgt id='scales0.50.5'>  0.135645357E+03 </wgt>
<wgt id='scales0.51.0'>  0.127494854E+03 </wgt>
<wgt id='scales1.00.5'>  0.115691540E+03 </wgt>
<wgt id='scales1.02.0'>  0.102182272E+03 </wgt>
<wgt id='scales2.01.0'>  0.938763553E+02 </wgt>
<wgt id='scales2.02.0'>  0.882150019E+02 </wgt>
</rwgt>
<scales uborns=' 0.954306749E+03'> </scales>
</event>
<event>
      5  10001  7.22938E+07  3.90803E+00  7.29735E-03  2.65873E-01
       1    -1     0     0   513     0  0.000000000E+00  0.000000000E+00  1.437077891E+03  1.437077891E+03  0.000000000E+00  0.00000E+00  9.000E+00
       2    -1     0     0   512     0  0.000000000E+00  0.000000000E+00 -1.355733801E+01  1.355733801E+01  0.000000000E+00  0.00000E+00  9.000E+00
       1     1     1     2   512     0 -6.347679079E+01 -7.416930454E+01  1.120052881E+03  1.124299269E+03  3.051757812E-05  0.00000E+00  9.000E+00
       2     1     1     2   513     0  6.454396136E+01  7.792880585E+01  3.055773030E+02  3.218948739E+02  5.394796609E-06  0.00000E+00  9.000E+00
      22     1     1     2     0     0 -1.067170562E+00 -3.759501306E+00 -2.109631406E+00  4.441086325E+00  3.318646170E-07  0.00000E+00  9.000E+00
#rwgt            1          96   2.3034674812942634E-004        6024     1115130           0
<rwgt>
<wgt id='central'>  0.722937954E+08 </wgt>
<wgt id='sudakovwgt'>  0.526989327E-01 </wgt>
<wgt id='scales0.50.5'>  0.870126059E+08 </wgt>
<wgt id='scales0.51.0'>  0.899612905E+08 </wgt>
<wgt id='scales1.00.5'>  0.699242073E+08 </wgt>
<wgt id='scales1.02.0'>  0.739634387E+08 </wgt>
<wgt id='scales2.01.0'>  0.594257374E+08 </wgt>
<wgt id='scales2.02.0'>  0.607981858E+08 </wgt>
</rwgt>
<scales uborns=' 0.993914607E+02'> </scales>
</event>
<event>
      5  10001  3.74674E+02  1.05546E+02  7.29735E-03  1.22783E-01
      21    -1     0     0   511   512  0.000000000E+00  0.000000000E+00  3.837919022E+02  3.837919022E+02  0.000000000E+00  0.00000E+00  9.000E+00
       1    -1     0     0   514     0  0.000000000E+00  0.000000000E+00 -2.288351555E+03  2.288351555E+03  0.000000000E+00  0.00000E+00  9.000E+00
       1     1     1     2   511     0 -5.253043336E+02  4.637590391E+02 -1.358226874E+03  1.528331552E+03  3.051757812E-05  0.00000E+00  9.000E+00
      21     1     1     2   514   512  5.716868980E+02 -4.954123544E+02 -1.858389580E+02  7.789707495E+02  1.144409180E-05  0.00000E+00  9.000E+00
      22     1     1     2     0     0 -4.638256438E+01  3.165331532E+01 -3.604938209E+02  3.648411566E+02  3.814697266E-06  0.00000E+00  9.000E+00
#rwgt            1         186   4.9130228512469544E-003        6024     1134562           0
<rwgt>
<wgt id='central'>  0.374674399E+03 </wgt>
<wgt id='sudakovwgt'>  0.414928001E-03 </wgt>
<wgt id='scales0.50.5'>  0.501857112E+03 </wgt>
<wgt id='scales0.51.0'>  0.441147609E+03 </wgt>
<wgt id='scales1.00.5'>  0.426235590E+03 </wgt>
<wgt id='scales1.02.0'>  0.331979685E+03 </wgt>
<wgt id='scales2.01.0'>  0.322307606E+03 </wgt>
<wgt id='scales2.02.0'>  0.285580472E+03 </wgt>
</rwgt>
<scales uborns=' 0.769142414E+03'> </scales>
</event>
<event>
      5  10001  1.26434E+04  1.06491E+01  7.29735E-03  1.92652E-01
       1    -1     0     0   511     0  0.000000000E+00  0.000000000E+00  1.153481723E+03  1.153481723E+03  0.000000000E+00  0.00000E+00  9.000E+00
       2    -1     0     0   513     0  0.000000000E+00  0.000000000E+00 -5.558747349E+02  5.558747349E+02  0.000000000E+00  0.00000E+00  9.000E+00
       1     1     1     2   513     0  3.389356517E+02  2.215985648E+02  1.006890633E+03  1.085270494E+03  2.642899792E-05  0.00000E+00  9.000E+00
       2     1     1     2   511     0 -3.509902861E+02 -2.338435022E+02 -4.264619356E+02  5.997889187E+02  9.344061824E-06  0.00000E+00  9.000E+00
      22     1     1     2     0     0  1.205463443E+01  1.224493738E+01  1.717829086E+01  2.429704466E+01  3.371747881E-07  0.00000E+00  9.000E+00
#rwgt            1          96   9.2005822461933590E-004        6024     1134670           0
<rwgt>
<wgt id='central'>  0.126434311E+05 </wgt>
<wgt id='sudakovwgt'>  0.234027327E+00 </wgt>
<wgt id='scales0.50.5'>  0.160301098E+05 </wgt>
<wgt id='scales0.51.0'>  0.150810400E+05 </wgt>
<wgt id='scales1.00.5'>  0.134390659E+05 </wgt>
<wgt id='scales1.02.0'>  0.119321344E+05 </wgt>
<wgt id='scales2.01.0'>  0.107582665E+05 </wgt>
<wgt id='scales2.02.0'>  0.101530507E+05 </wgt>
</rwgt>
<scales uborns=' 0.422503506E+03'> </scales>
</event>
<event>
      5  10001  6.28954E+04  2.07988E+01  7.29735E-03  1.64978E-01
      21    -1     0     0   512   513  0.000000000E+00  0.000000000E+00  1.255935117E+02  1.255935117E+02  0.000000000E+00  0.00000E+00  9.000E+00
       2    -1     0     0   514     0  0.000000000E+00  0.000000000E+00 -8.358107619E+02  8.358107619E+02  0.000000000E+00  0.00000E+00  9.000E+00
       2     1     1     2   512     0  2.739943900E+02  6.892561193E+01 -3.622008980E+02  4.593616835E+02  1.078959322E-05  0.00000E+00  9.000E+00
      21     1     1     2   514   513 -3.057682003E+02 -9.558930735E+01 -3.088369897E+02  4.449851618E+02  3.814697266E-06  0.00000E+00  9.000E+00
      22     1     1     2     0     0  3.177381025E+01  2.666369542E+01 -3.917936253E+01  5.705742826E+01  8.259061849E-07  0.00000E+00  9.000E+00
#rwgt            1         187   5.8377511154512644E-003        6024     1157135           0
<rwgt>
<wgt id='central'>  0.628954418E+05 </wgt>
<wgt id='sudakovwgt'>  0.119277188E+00 </wgt>
<wgt id='scales0.50.5'>  0.778356539E+05 </wgt>
<wgt id='scales0.51.0'>  0.755155910E+05 </wgt>
<wgt id='scales1.00.5'>  0.648277332E+05 </wgt>
<wgt id='scales1.02.0'>  0.608711469E+05 </wgt>
<wgt id='scales2.01.0'>  0.532262813E+05 </wgt>
<wgt id='scales2.02.0'>  0.515132234E+05 </wgt>
</rwgt>
<scales uborns=' 0.322629035E+03'> </scales>
</event>
<event>
      5  10001  3.35274E+03  6.02739E+01  7.29735E-03  1.34598E-01
      21    -1     0     0   511   515  0.000000000E+00  0.000000000E+00  5.172432884E+02  5.172432884E+02  0.000000000E+00  0.00000E+00  9.000E+00
       2    -1     0     0   512     0  0.000000000E+00  0.000000000E+00 -6.856439591E+02  6.856439591E+02  0.000000000E+00  0.00000E+00  9.000E+00
       2     1     1     2   511     0  1.120656377E+01 -1.605221350E+02 -9.882069304E+01  1.888345103E+02  5.722045898E-06  0.00000E+00  9.000E+00
      21     1     1     2   512   515  1.433864945E+01  5.279968539E+02  1.922790701E+02  5.621009833E+02  1.175768662E-05  0.00000E+00  9.000E+00
      22     1     1     2     0     0 -2.554521322E+01 -3.674747189E+02 -2.618590478E+02  4.519517539E+02  1.009274029E-05  0.00000E+00  9.000E+00
#rwgt            1         187   5.3924145879366316E-003        6024     1157963           0
<rwgt>
<wgt id='central'>  0.335273780E+04 </wgt>
<wgt id='sudakovwgt'>  0.485233483E-03 </wgt>
<wgt id='scales0.50.5'>  0.429728385E+04 </wgt>
<wgt id='scales0.51.0'>  0.397879604E+04 </wgt>
<wgt id='scales1.00.5'>  0.362111435E+04 </wgt>
<wgt id='scales1.02.0'>  0.311634082E+04 </wgt>
<wgt id='scales2.01.0'>  0.286505506E+04 </wgt>
<wgt id='scales2.02.0'>  0.266304217E+04 </wgt>
</rwgt>
<scales uborns=' 0.528762137E+03'> </scales>
</event>
<event>
      5  10001  5.11925E+03  4.03329E+00  7.29735E-03  2.62624E-01
       2    -1     0     0   514     0  0.000000000E+00  0.000000000E+00  9.943298140E+02  9.943298140E+02  0.000000000E+00  0.00000E+00  9.000E+00
      21    -1     0     0   511   514  0.000000000E+00  0.000000000E+00 -8.775433152E+02  8.775433152E+02  0.000000000E+00  0.00000E+00  9.000E+00
       2     1     1     2   513     0 -6.176216845E+01  4.858591592E+02  8.445134769E+02  9.762564728E+02  1.868812365E-05  0.00000E+00  9.000E+00
      21     1     1     2   511   513  5.911713319E+01 -4.883876300E+02 -7.367388719E+02  8.858902178E+02  1.078959322E-05  0.00000E+00  9.000E+00
      22     1     1     2     0     0  2.645035255E+00  2.528470745E+00  9.011893845E+00  9.726438530E+00  1.685873940E-07  0.00000E+00  9.000E+00
#rwgt            1         182   5.1240268970050842E-003        6024     1158354           0
<rwgt>
<wgt id='central'>  0.511924537E+04 </wgt>
<wgt id='sudakovwgt'>  0.235211537E+00 </wgt>
<wgt id='scales0.50.5'>  0.679626236E+04 </wgt>
<wgt id='scales0.51.0'>  0.608487510E+04 </wgt>
<wgt id='scales1.00.5'>  0.571774532E+04 </wgt>
<wgt id='scales1.02.0'>  0.461660831E+04 </wgt>
<wgt id='scales2.01.0'>  0.436875613E+04 </wgt>
<wgt id='scales2.02.0'>  0.393980287E+04 </wgt>
</rwgt>
<scales uborns=' 0.492183737E+03'> </scales>
</event>
<event>
      5  10001  3.38816E+02  4.96146E+01  7.29735E-03  1.39267E-01
       2    -1     0     0   514     0  0.000000000E+00  0.000000000E+00  4.233544898E+03  4.233544898E+03  0.000000000E+00  0.00000E+00  9.000E+00
      21    -1     0     0   513   514  0.000000000E+00  0.000000000E+00 -3.561598885E+02  3.561598885E+02  0.000000000E+00  0.00000E+00  9.000E+00
       2     1     1     2   512     0  7.615770278E+02 -1.805506734E+02  2.844221009E+03  2.949947671E+03  6.103515625E-05  0.00000E+00  9.000E+00
      21     1     1     2   513   512 -7.492796845E+02  2.286171153E+02  2.045323812E+02  8.096414799E+02  1.348699152E-05  0.00000E+00  9.000E+00
      22     1     1     2     0     0 -1.229734331E+01 -4.806644197E+01  8.286316199E+02  8.301156359E+02  1.078959322E-05  0.00000E+00  9.000E+00
#rwgt            1         182   1.3712763968031822E-002        6024     1166424           0
<rwgt>
<wgt id='central'>  0.338815864E+03 </wgt>
<wgt id='sudakovwgt'>  0.302112713E-01 </wgt>
<wgt id='scales0.50.5'>  0.459164664E+03 </wgt>
<wgt id='scales0.51.0'>  0.398789085E+03 </wgt>
<wgt id='scales1.00.5'>  0.390111817E+03 </wgt>
<wgt id='scales1.02.0'>  0.296908778E+03 </wgt>
<wgt id='scales2.01.0'>  0.291547123E+03 </wgt>
<wgt id='scales2.02.0'>  0.255486459E+03 </wgt>
</rwgt>
<scales uborns=' 0.782640729E+03'> </scales>
</event>
<event>
      5  10001  1.01195E+02  9.63618E-01  7.29735E-03  6.82330E-01
      21    -1     0     0   511   515  0.000000000E+00  0.000000000E+00  7.884304448E+02  7.884304448E+02  0.000000000E+00  0.00000E+00  9.000E+00
       2    -1     0     0   512     0  0.000000000E+00  0.000000000E+00 -1.227844610E+03  1.227844610E+03  0.000000000E+00  0.00000E+00  9.000E+00
       2     1     1     2   511     0 -9.220591243E+02  2.557278632E+02 -2.962608499E+01  9.573230770E+02  1.053367712E-05  0.00000E+00  9.000E+00
      21     1     1     2   512   515  9.312009856E+02 -2.586544285E+02 -4.085943919E+02  1.049279165E+03  5.394796609E-06  0.00000E+00  9.000E+00
      22     1     1     2     0     0 -9.141861313E+00  2.926565281E+00 -1.193688215E+00  9.672812629E+00  9.657056180E-08  0.00000E+00  9.000E+00
#rwgt            1         187   2.5116582108799771E-003        6024     1168390           0
<rwgt>
<wgt id='central'>  0.101195328E+03 </wgt>
<wgt id='sudakovwgt'>  0.123122253E+01 </wgt>
<wgt id='scales0.50.5'>  0.131988070E+03 </wgt>
<wgt id='scales0.51.0'>  0.118620028E+03 </wgt>
<wgt id='scales1.00.5'>  0.112599306E+03 </wgt>
<wgt id='scales1.02.0'>  0.915486155E+02 </wgt>
<wgt id='scales2.01.0'>  0.873805323E+02 </wgt>
<wgt id='scales2.02.0'>  0.790510080E+02 </wgt>
</rwgt>
<scales uborns=' 0.966479510E+03'> </scales>
</event>
<event>
      4  10001  5.51673E+07  8.94427E-01  7.29735E-03  7.52505E-01
       2    -1     0     0   514     0  0.000000000E+00  0.000000000E+00  4.823448436E+02  4.823448436E+02  0.000000000E+00  0.00000E+00  9.000E+00
      21    -1     0     0   513   511  0.000000000E+00  0.000000000E+00 -8.427887617E+01  8.427887617E+01  0.000000000E+00  0.00000E+00  9.000E+00
       2     1     1     2   513     0 -7.956137797E+01  6.693969613E+01  4.417666115E+02  4.538377186E+02  7.629394531E-06  0.00000E+00  9.000E+00
      21     1     1     2   514   511  7.956137797E+01 -6.693969613E+01 -4.370064403E+01  1.127860012E+02  9.536743164E-07  0.00000E+00  9.000E+00
#rwgt            1         182   5.1487788699510952E-003        6024     1174066           0
<rwgt>
<wgt id='central'>  0.551672669E+08 </wgt>
<wgt id='sudakovwgt'>  0.461444875E+01 </wgt>
<wgt id='scales0.50.5'>  0.674847097E+08 </wgt>
<wgt id='scales0.51.0'>  0.685371140E+08 </wgt>
<wgt id='scales1.00.5'>  0.543201925E+08 </wgt>
<wgt id='scales1.02.0'>  0.554278118E+08 </wgt>
<wgt id='scales2.01.0'>  0.454069507E+08 </wgt>
<wgt id='scales2.02.0'>  0.456213721E+08 </wgt>
</rwgt>
<scales uborns=' 0.103975650E+03'> </scales>
</event>
<event>
      5  10001  4.59778E-01  3.90682E+03  7.29735E-03  7.87266E-02
       1    -1     0     0   511     0  0.000000000E+00  0.000000000E+00  2.186477601E+03  2.186477601E+03  0.000000000E+00  0.00000E+00  9.000E+00
       2    -1     0     0   512     0  0.000000000E+00  0.000000000E+00 -4.327295928E+03  4.327295928E+03  0.000000000E+00  0.00000E+00  9.000E+00
      22     1     1     2     0     0 -1.084770053E+03  1.947404614E+03 -1.108141862E+03  2.489395346E+03  5.709316081E-05  0.00000E+00  9.000E+00
       2     1     1     2   511     0 -7.312627609E+02 -1.450587261E+03 -1.353527327E+03  2.114470348E+03  3.411968960E-05  0.00000E+00  9.000E+00
       1     1     1     2   512     0  1.816032814E+03 -4.968173536E+02  3.208508617E+02  1.909907836E+03  4.281987061E-05  0.00000E+00  9.000E+00
#rwgt            1          96   8.3076060337545499E-003        6024     1187789           0
<rwgt>
<wgt id='central'>  0.459777667E+00 </wgt>
<wgt id='sudakovwgt'>  0.520107734E-03 </wgt>
<wgt id='scales0.50.5'>  0.631286736E+00 </wgt>
<wgt id='scales0.51.0'>  0.529351642E+00 </wgt>
<wgt id='scales1.00.5'>  0.548315580E+00 </wgt>
<wgt id='scales1.02.0'>  0.389965268E+00 </wgt>
<wgt id='scales2.01.0'>  0.403183331E+00 </wgt>
<wgt id='scales2.02.0'>  0.341963938E+00 </wgt>
</rwgt>
<scales uborns=' 0.282655126E+04'> </scales>
</event>
<event>
      5  10001  5.36187E+04  5.59055E+00  7.29735E-03  2.30347E-01
      21    -1     0     0   513   512  0.000000000E+00  0.000000000E+00  2.123466688E+02  2.123466688E+02  0.000000000E+00  0.00000E+00  9.000E+00
      -3    -1     0     0     0   513  0.000000000E+00  0.000000000E+00 -5.426088755E+02  5.426088755E+02  0.000000000E+00  0.00000E+00  9.000E+00
      -3     1     1     2     0   514  3.072687169E+02 -5.865451421E+01 -2.266704930E+02  3.863080750E+02  1.078959322E-05  0.00000E+00  9.000E+00
      21     1     1     2   514   512 -3.249873127E+02  6.297806079E+01 -8.327830231E+01  3.413477189E+02  5.878843310E-06  0.00000E+00  9.000E+00
      22     1     1     2     0     0  1.771859582E+01 -4.323546579E+00 -2.031341138E+01  2.729975045E+01  6.307962682E-07  0.00000E+00  9.000E+00
#rwgt            1         198   5.2035501812752250E-004        6024     1188007           0
<rwgt>
<wgt id='central'>  0.536187238E+05 </wgt>
<wgt id='sudakovwgt'>  0.378727186E-01 </wgt>
<wgt id='scales0.50.5'>  0.665761157E+05 </wgt>
<wgt id='scales0.51.0'>  0.643341139E+05 </wgt>
<wgt id='scales1.00.5'>  0.554872766E+05 </wgt>
<wgt id='scales1.02.0'>  0.516361918E+05 </wgt>
<wgt id='scales2.01.0'>  0.454010868E+05 </wgt>
<wgt id='scales2.02.0'>  0.437224183E+05 </wgt>
</rwgt>
<scales uborns=' 0.331383660E+03'> </scales>
</event>
<event>
      5  10001  5.35664E+01  7.74429E+00  7.29735E-03  2.09532E-01
      -2    -1     0     0     0   511  0.000000000E+00  0.000000000E+00  1.536017255E+03  1.536017255E+03  0.000000000E+00  0.00000E+00  9.000E+00
       1    -1     0     0   511     0  0.000000000E+00  0.000000000E+00 -1.592204605E+03  1.592204605E+03  0.000000000E+00  0.00000E+00  9.000E+00
       1     1     1     2   513     0  8.980519604E+02  5.966967482E+02 -1.101313861E+03  1.541245131E+03  3.411968960E-05  0.00000E+00  9.000E+00
      -2     1     1     2     0   513 -9.040426970E+02 -6.016044006E+02  1.091669837E+03  1.539793521E+03  2.642899792E-05  0.00000E+00  9.000E+00
      22     1     1     2     0     0  5.990736594E+00  4.907652396E+00 -4.654332602E+01  4.718320860E+01  0.000000000E+00  0.00000E+00  9.000E+00
#rwgt            1         165   1.4476167552834337E-004        6024     1188290           0
<rwgt>
<wgt id='central'>  0.535663665E+02 </wgt>
<wgt id='sudakovwgt'>  0.232364504E+00 </wgt>
<wgt id='scales0.50.5'>  0.705465619E+02 </wgt>
<wgt id='scales0.51.0'>  0.626578324E+02 </wgt>
<wgt id='scales1.00.5'>  0.603105024E+02 </wgt>
<wgt id='scales1.02.0'>  0.479324765E+02 </wgt>
<wgt id='scales2.01.0'>  0.463370077E+02 </wgt>
<wgt id='scales2.02.0'>  0.414634460E+02 </wgt>
</rwgt>
<scales uborns=' 0.108206302E+04'> </scales>
</event>
<event>
      4  10001  1.22252E+01  8.94427E-01  7.29735E-03  7.42918E-01
       1    -1     0     0   514     0  0.000000000E+00  0.000000000E+00  1.000585543E+03  1.000585543E+03  0.000000000E+00  0.00000E+00  9.000E+00
      21    -1     0     0   513   514  0.000000000E+00  0.000000000E+00 -2.270622217E+03  2.270622217E+03  0.000000000E+00  0.00000E+00  9.000E+00
       1     1     1     2   512     0  1.412987851E+03  1.139975429E+02 -7.914170767E+01  1.419786433E+03  2.977847099E-05  0.00000E+00  9.000E+00
      21     1     1     2   513   512 -1.412987851E+03 -1.139975429E+02 -1.190894967E+03  1.851421326E+03  2.642899792E-05  0.00000E+00  9.000E+00
#rwgt            1         181   8.8170949035282220E-004        6024     1247510           0
<rwgt>
<wgt id='central'>  0.122251709E+02 </wgt>
<wgt id='sudakovwgt'>  0.247594497E+01 </wgt>
<wgt id='scales0.50.5'>  0.167621988E+02 </wgt>
<wgt id='scales0.51.0'>  0.142313604E+02 </wgt>
<wgt id='scales1.00.5'>  0.143992723E+02 </wgt>
<wgt id='scales1.02.0'>  0.105027614E+02 </wgt>
<wgt id='scales2.01.0'>  0.106188979E+02 </wgt>
<wgt id='scales2.02.0'>  0.912277516E+01 </wgt>
</rwgt>
<scales uborns=' 0.141757896E+04'> </scales>
</event>
<event>
      5  10001  5.61191E+00  5.39662E+01  7.29735E-03  1.37210E-01
      21    -1     0     0   512   513  0.000000000E+00  0.000000000E+00  1.448378010E+03  1.448378010E+03  0.000000000E+00  0.00000E+00  9.000E+00
       1    -1     0     0   513     0  0.000000000E+00  0.000000000E+00 -2.872652300E+03  2.872652300E+03  0.000000000E+00  0.00000E+00  9.000E+00
       1     1     1     2   511     0 -3.690641092E+02  1.573005068E+03 -1.877490037E+03  2.476998607E+03  5.285799584E-05  0.00000E+00  9.000E+00
      21     1     1     2   512   511  3.712938342E+02 -1.595215195E+03  5.630637902E+02  1.731938642E+03  2.288818359E-05  0.00000E+00  9.000E+00
      22     1     1     2     0     0 -2.229724990E+00  2.221012657E+01 -1.098480437E+02  1.120930600E+02  1.348699152E-06  0.00000E+00  9.000E+00
#rwgt            1         186   2.4254207496935717E-003        6024     1248870           0
<rwgt>
<wgt id='central'>  0.561191259E+01 </wgt>
<wgt id='sudakovwgt'>  0.421430524E-01 </wgt>
<wgt id='scales0.50.5'>  0.784661530E+01 </wgt>
<wgt id='scales0.51.0'>  0.651634429E+01 </wgt>
<wgt id='scales1.00.5'>  0.675754639E+01 </wgt>
<wgt id='scales1.02.0'>  0.472043969E+01 </wgt>
<wgt id='scales2.01.0'>  0.488512019E+01 </wgt>
<wgt id='scales2.02.0'>  0.410910282E+01 </wgt>
</rwgt>
<scales uborns=' 0.164490373E+04'> </scales>
</event>
<event>
      5  10001  7.23566E-01  3.57994E+03  7.29735E-03  7.94116E-02
       2    -1     0     0   511     0  0.000000000E+00  0.000000000E+00  2.388616517E+03  2.388616517E+03  0.000000000E+00  0.00000E+00  9.000E+00
       1    -1     0     0   514     0  0.000000000E+00  0.000000000E+00 -2.689537365E+03  2.689537365E+03  0.000000000E+00  0.00000E+00  9.000E+00
       2     1     1     2   514     0 -1.333164421E+03 -3.775692772E+02 -4.249710578E+01  1.386251037E+03  2.806866198E-05  0.00000E+00  9.000E+00
      22     1     1     2     0     0  7.535030016E+02 -1.097187996E+03 -1.247275721E+03  1.824084701E+03  2.157918644E-05  0.00000E+00  9.000E+00
       1     1     1     2   511     0  5.796614198E+02  1.474757274E+03  9.888519792E+02  1.867818143E+03  2.854658040E-05  0.00000E+00  9.000E+00
#rwgt            1          92   2.6082377648068377E-002        6024     1249374           0
<rwgt>
<wgt id='central'>  0.723565924E+00 </wgt>
<wgt id='sudakovwgt'>  0.734525876E-03 </wgt>
<wgt id='scales0.50.5'>  0.966146876E+00 </wgt>
<wgt id='scales0.51.0'>  0.834423390E+00 </wgt>
<wgt id='scales1.00.5'>  0.837789351E+00 </wgt>
<wgt id='scales1.02.0'>  0.630771322E+00 </wgt>
<wgt id='scales2.01.0'>  0.633600966E+00 </wgt>
<wgt id='scales2.02.0'>  0.552343973E+00 </wgt>
</rwgt>
<scales uborns=' 0.253357431E+04'> </scales>
</event>
<event>
      5  10001  1.59526E+03  1.66235E+00  7.29735E-03  4.05238E-01
      21    -1     0     0   513   514  0.000000000E+00  0.000000000E+00  7.276933079E+02  7.276933079E+02  0.000000000E+00  0.00000E+00  9.000E+00
      21    -1     0     0   512   513  0.000000000E+00  0.000000000E+00 -5.254753213E+02  5.254753213E+02  0.000000000E+00  0.00000E+00  9.000E+00
       1     1     1     2   512     0  3.832163157E+02 -4.611821895E+02 -5.080981434E+01  6.017685550E+02  3.873843386E-06  0.00000E+00  9.000E+00
      -1     1     1     2     0   514 -3.827319057E+02  4.599770170E+02  2.507905764E+02  6.488131326E+02  1.112165812E-05  0.00000E+00  9.000E+00
      22     1     1     2     0     0 -4.844100057E-01  1.205172550E+00  2.237224491E+00  2.586941698E+00  0.000000000E+00  0.00000E+00  9.000E+00
#rwgt            1         201   8.8590923020308450E-005        6024     1250612           0
<rwgt>
<wgt id='central'>  0.159525824E+04 </wgt>
<wgt id='sudakovwgt'>  0.606218672E-01 </wgt>
<wgt id='scales0.50.5'>  0.214663415E+04 </wgt>
<wgt id='scales0.51.0'>  0.188796240E+04 </wgt>
<wgt id='scales1.00.5'>  0.181382828E+04 </wgt>
<wgt id='scales1.02.0'>  0.141418112E+04 </wgt>
<wgt id='scales2.01.0'>  0.136635902E+04 </wgt>
<wgt id='scales2.02.0'>  0.121126282E+04 </wgt>
</rwgt>
<scales uborns=' 0.599915894E+03'> </scales>
</event>
<event>
      4  10001  6.79521E+04  8.94427E-01  7.29735E-03  7.49010E-01
      21    -1     0     0   511   512  0.000000000E+00  0.000000000E+00  9.864677831E+01  9.864677831E+01  0.000000000E+00  0.00000E+00  9.000E+00
       1    -1     0     0   514     0  0.000000000E+00  0.000000000E+00 -1.028348455E+03  1.028348455E+03  0.000000000E+00  0.00000E+00  9.000E+00
       1     1     1     2   511     0 -3.182891585E+02 -1.076696643E+01 -4.570691024E+02  5.570781636E+02  5.394796609E-06  0.00000E+00  9.000E+00
      21     1     1     2   514   512  3.182891585E+02  1.076696643E+01 -4.726325739E+02  5.699170694E+02  7.629394531E-06  0.00000E+00  9.000E+00
#rwgt            1         186   3.1713689330571350E-003        6024     1251720           0
<rwgt>
<wgt id='central'>  0.679521297E+05 </wgt>
<wgt id='sudakovwgt'>  0.208599419E+01 </wgt>
<wgt id='scales0.50.5'>  0.849544797E+05 </wgt>
<wgt id='scales0.51.0'>  0.816137311E+05 </wgt>
<wgt id='scales1.00.5'>  0.707336280E+05 </wgt>
<wgt id='scales1.02.0'>  0.651571013E+05 </wgt>
<wgt id='scales2.01.0'>  0.574899494E+05 </wgt>
<wgt id='scales2.02.0'>  0.551252788E+05 </wgt>
</rwgt>
<scales uborns=' 0.318471217E+03'> </scales>
</event>
<event>
      4  10001  1.79098E+03  8.94427E-01  7.29735E-03  7.52111E-01
       2    -1     0     0   515     0  0.000000000E+00  0.000000000E+00  1.881353224E+03  1.881353224E+03  0.000000000E+00  0.00000E+00  9.000E+00
      21    -1     0     0   511   515  0.000000000E+00  0.000000000E+00 -2.379923708E+02  2.379923708E+02  0.000000000E+00  0.00000E+00  9.000E+00
       2     1     1     2   513     0 -4.620846446E+02  3.639553194E+02  1.326862532E+03  1.451395836E+03  1.525878906E-05  0.00000E+00  9.000E+00
      21     1     1     2   511   513  4.620846446E+02 -3.639553194E+02  3.164983211E+02  6.679497590E+02  7.629394531E-06  0.00000E+00  9.000E+00
#rwgt            1         182   1.2958446816956572E-002        6024     1253491           0
<rwgt>
<wgt id='central'>  0.179097806E+04 </wgt>
<wgt id='sudakovwgt'>  0.252114796E+02 </wgt>
<wgt id='scales0.50.5'>  0.231687956E+04 </wgt>
<wgt id='scales0.51.0'>  0.212048800E+04 </wgt>
<wgt id='scales1.00.5'>  0.195685378E+04 </wgt>
<wgt id='scales1.02.0'>  0.164586601E+04 </wgt>
<wgt id='scales2.01.0'>  0.153345094E+04 </wgt>
<wgt id='scales2.02.0'>  0.140920322E+04 </wgt>
</rwgt>
<scales uborns=' 0.588205486E+03'> </scales>
</event>
<event>
      5  10001  2.15413E+02  1.72297E+00  7.29735E-03  3.96262E-01
       2    -1     0     0   513     0  0.000000000E+00  0.000000000E+00  3.064467706E+03  3.064467706E+03  0.000000000E+00  0.00000E+00  9.000E+00
      21    -1     0     0   512   514  0.000000000E+00  0.000000000E+00 -9.854746405E+02  9.854746405E+02  0.000000000E+00  0.00000E+00  9.000E+00
       2     1     1     2   512     0 -6.457840600E+02 -5.014531947E+02  2.715273700E+03  2.835701610E+03  3.051757812E-05  0.00000E+00  9.000E+00
      21     1     1     2   513   514  6.695260796E+02  5.182074589E+02 -7.288914660E+02  1.117178102E+03  1.525878906E-05  0.00000E+00  9.000E+00
      22     1     1     2     0     0 -2.374201952E+01 -1.675426417E+01  9.261083159E+01  9.706263435E+01  1.907348633E-06  0.00000E+00  9.000E+00
#rwgt            1         182   1.1465384902487569E-002        6024     1271879           0
<rwgt>
<wgt id='central'>  0.215412918E+03 </wgt>
<wgt id='sudakovwgt'>  0.375403767E+00 </wgt>
<wgt id='scales0.50.5'>  0.299257373E+03 </wgt>
<wgt id='scales0.51.0'>  0.253149456E+03 </wgt>
<wgt id='scales1.00.5'>  0.254647707E+03 </wgt>
<wgt id='scales1.02.0'>  0.184397728E+03 </wgt>
<wgt id='scales2.01.0'>  0.185604348E+03 </wgt>
<wgt id='scales2.02.0'>  0.158880941E+03 </wgt>
</rwgt>
<scales uborns=' 0.846648923E+03'> </scales>
</event>
<event>
      5  10001  3.71498E+01  2.94192E+02  7.29735E-03  1.05868E-01
       1    -1     0     0   512     0  0.000000000E+00  0.000000000E+00  1.086944265E+03  1.086944265E+03  0.000000000E+00  0.00000E+00  9.000E+00
       4    -1     0     0   511     0  0.000000000E+00  0.000000000E+00 -1.229597659E+03  1.229597659E+03  0.000000000E+00  0.00000E+00  9.000E+00
       1     1     1     2   511     0  4.840988989E+02 -8.914861547E+02 -9.120436934E+01  1.018536963E+03  1.382005381E-05  0.00000E+00  9.000E+00
       4     1     1     2   512     0 -6.063600732E+02  9.717666012E+02 -8.281551047E+01  1.148416856E+03  1.601491511E-05  0.00000E+00  9.000E+00
      22     1     1     2     0     0  1.222611743E+02 -8.028044648E+01  3.136648509E+01  1.495881052E+02  1.011524364E-06  0.00000E+00  9.000E+00
#rwgt            1         106   1.8930859492277385E-005        6024     1287200           0
<rwgt>
<wgt id='central'>  0.371497744E+02 </wgt>
<wgt id='sudakovwgt'>  0.117447870E-02 </wgt>
<wgt id='scales0.50.5'>  0.453923714E+02 </wgt>
<wgt id='scales0.51.0'>  0.434027719E+02 </wgt>
<wgt id='scales1.00.5'>  0.388527609E+02 </wgt>
<wgt id='scales1.02.0'>  0.354702684E+02 </wgt>
<wgt id='scales2.01.0'>  0.321689675E+02 </wgt>
<wgt id='scales2.02.0'>  0.307146178E+02 </wgt>
</rwgt>
<scales uborns=' 0.115561558E+04'> </scales>
</event>
<event>
      5  10001  1.11216E+06  1.41882E+01  7.29735E-03  1.79690E-01
       3    -1     0     0   511     0  0.000000000E+00  0.000000000E+00  9.568227409E+02  9.568227409E+02  0.000000000E+00  0.00000E+00  9.000E+00
      21    -1     0     0   513   514  0.000000000E+00  0.000000000E+00 -7.148591274E+01  7.148591274E+01  0.000000000E+00  0.00000E+00  9.000E+00
      22     1     1     2     0     0  1.414127054E+02 -1.232789112E+02  6.999222808E+02  7.246284857E+02  0.000000000E+00  0.00000E+00  9.000E+00
      21     1     1     2   511   514 -1.418852092E+02  1.380939189E+02  1.093463413E+02  2.261812666E+02  4.473129043E-06  0.00000E+00  9.000E+00
       3     1     1     2   513     0  4.725037537E-01 -1.481500771E+01  7.606820613E+01  7.749890127E+01  1.651812370E-06  0.00000E+00  9.000E+00
#rwgt            1         183   6.4570955599041913E-004        6024     1288174           0
<rwgt>
<wgt id='central'>  0.111216086E+07 </wgt>
<wgt id='sudakovwgt'>  0.305364948E-01 </wgt>
<wgt id='scales0.50.5'>  0.137711528E+07 </wgt>
<wgt id='scales0.51.0'>  0.135284839E+07 </wgt>
<wgt id='scales1.00.5'>  0.113210952E+07 </wgt>
<wgt id='scales1.02.0'>  0.108550907E+07 </wgt>
<wgt id='scales2.01.0'>  0.931133357E+06 </wgt>
<wgt id='scales2.02.0'>  0.908820410E+06 </wgt>
</rwgt>
<scales uborns=' 0.199484896E+03'> </scales>
</event>
<event>
      5  10001  1.21830E+02  9.55003E+01  7.29735E-03  1.24734E-01
      21    -1     0     0   512   513  0.000000000E+00  0.000000000E+00  9.861443388E+02  9.861443388E+02  0.000000000E+00  0.00000E+00  9.000E+00
       2    -1     0     0   515     0  0.000000000E+00  0.000000000E+00 -8.882607192E+02  8.882607192E+02  0.000000000E+00  0.00000E+00  9.000E+00
       2     1     1     2   512     0 -2.577488168E+02 -6.043991984E+02  2.897554259E+01  6.577023838E+02  2.319409658E-05  0.00000E+00  9.000E+00
      21     1     1     2   515   513  4.422209441E+02  8.178872789E+02  1.774283206E+01  9.299536400E+02  1.928097402E-05  0.00000E+00  9.000E+00
      22     1     1     2     0     0 -1.844721273E+02 -2.134880805E+02  5.116524491E+01  2.867490341E+02  5.436780096E-06  0.00000E+00  9.000E+00
#rwgt            1         187   2.5423038941985981E-003        6024     1288549           0
<rwgt>
<wgt id='central'>  0.121829859E+03 </wgt>
<wgt id='sudakovwgt'>  0.136768064E+00 </wgt>
<wgt id='scales0.50.5'>  0.158760080E+03 </wgt>
<wgt id='scales0.51.0'>  0.142896938E+03 </wgt>
<wgt id='scales1.00.5'>  0.135354479E+03 </wgt>
<wgt id='scales1.02.0'>  0.110391661E+03 </wgt>
<wgt id='scales2.01.0'>  0.105143054E+03 </wgt>
<wgt id='scales2.02.0'>  0.952714133E+02 </wgt>
</rwgt>
<scales uborns=' 0.935408587E+03'> </scales>
</event>
<event>
      4  10001  7.00068E+07  8.94427E-01  7.29735E-03  7.52034E-01
      -4    -1     0     0     0   511  0.000000000E+00  0.000000000E+00  3.250285187E+02  3.250285187E+02  0.000000000E+00  0.00000E+00  9.000E+00
      21    -1     0     0   512   513  0.000000000E+00  0.000000000E+00 -7.441461134E+02  7.441461134E+02  0.000000000E+00  0.00000E+00  9.000E+00
      -4     1     1     2     0   513  6.473778236E+01  7.611943930E+01  3.138774408E+02  3.293997531E+02  3.814697266E-06  0.00000E+00  9.000E+00
      21     1     1     2   512   511 -6.473778236E+01 -7.611943930E+01 -7.329950355E+02  7.397748790E+02  1.078959322E-05  0.00000E+00  9.000E+00
#rwgt            1         194   1.3046810523033940E-004        6024     1289268           0
<rwgt>
<wgt id='central'>  0.700068305E+08 </wgt>
<wgt id='sudakovwgt'>  0.508834633E+01 </wgt>
<wgt id='scales0.50.5'>  0.890986730E+08 </wgt>
<wgt id='scales0.51.0'>  0.870983224E+08 </wgt>
<wgt id='scales1.00.5'>  0.716146168E+08 </wgt>
<wgt id='scales1.02.0'>  0.675538833E+08 </wgt>
<wgt id='scales2.01.0'>  0.575548049E+08 </wgt>
<wgt id='scales2.02.0'>  0.555381845E+08 </wgt>
</rwgt>
<scales uborns=' 0.999257199E+02'> </scales>
</event>
<event>
      5  10001  1.07823E+03  1.85561E+02  7.29735E-03  1.12846E-01
      21    -1     0     0   514   515  0.000000000E+00  0.000000000E+00  1.483108835E+03  1.483108835E+03  0.000000000E+00  0.00000E+00  9.000E+00
       2    -1     0     0   511     0  0.000000000E+00  0.000000000E+00 -6.713577000E+02  6.713577000E+02  0.000000000E+00  0.00000E+00  9.000E+00
      22     1     1     2     0     0  8.447689930E+01 -3.262530360E+02 -2.805193562E+02  4.384843204E+02  7.629394531E-06  0.00000E+00  9.000E+00
      21     1     1     2   511   515 -3.158745167E+02  5.493431059E+02  1.216286877E+03  1.371462112E+03  1.525878906E-05  0.00000E+00  9.000E+00
       2     1     1     2   514     0  2.313976174E+02 -2.230900699E+02 -1.240163862E+02  3.445201020E+02  5.722045898E-06  0.00000E+00  9.000E+00
#rwgt            1         187   3.1549516700577979E-003        6024     1297748           0
<rwgt>
<wgt id='central'>  0.107822632E+04 </wgt>
<wgt id='sudakovwgt'>  0.445450554E-01 </wgt>
<wgt id='scales0.50.5'>  0.143923308E+04 </wgt>
<wgt id='scales0.51.0'>  0.127426227E+04 </wgt>
<wgt id='scales1.00.5'>  0.121782173E+04 </wgt>
<wgt id='scales1.02.0'>  0.962805146E+03 </wgt>
<wgt id='scales2.01.0'>  0.924618139E+03 </wgt>
<wgt id='scales2.02.0'>  0.825637482E+03 </wgt>
</rwgt>
<scales uborns=' 0.641395984E+03'> </scales>
</event>
<event>
      5  10001  1.79806E+07  5.30213E+00  7.29735E-03  2.34148E-01
      21    -1     0     0   512   513  0.000000000E+00  0.000000000E+00  1.856743536E+02  1.856743536E+02  0.000000000E+00  0.00000E+00  9.000E+00
       1    -1     0     0   514     0  0.000000000E+00  0.000000000E+00 -5.735993554E+02  5.735993554E+02  0.000000000E+00  0.00000E+00  9.000E+00
      22     1     1     2     0     0 -2.250978312E+01 -1.869929070E+01 -1.268627150E+02  1.301940946E+02  1.348699152E-06  0.00000E+00  9.000E+00
      21     1     1     2   514   513  9.295590627E+01  8.409891858E+01  1.565471035E+02  2.005503035E+02  4.672030912E-06  0.00000E+00  9.000E+00
       1     1     1     2   512     0 -7.044612315E+01 -6.539962788E+01 -4.176093902E+02  4.285293109E+02  0.000000000E+00  0.00000E+00  9.000E+00
#rwgt            1         186   5.0106653234848692E-003        6024     1298486           0
<rwgt>
<wgt id='central'>  0.179806399E+08 </wgt>
<wgt id='sudakovwgt'>  0.290063240E-01 </wgt>
<wgt id='scales0.50.5'>  0.230710841E+08 </wgt>
<wgt id='scales0.51.0'>  0.221929803E+08 </wgt>
<wgt id='scales1.00.5'>  0.186920336E+08 </wgt>
<wgt id='scales1.02.0'>  0.172444401E+08 </wgt>
<wgt id='scales2.01.0'>  0.148770103E+08 </wgt>
<wgt id='scales2.02.0'>  0.142679173E+08 </wgt>
</rwgt>
<scales uborns=' 0.125355729E+03'> </scales>
</event>
<event>
      5  10001  6.60483E+00  3.94396E+02  7.29735E-03  1.01870E-01
      -4    -1     0     0     0   511  0.000000000E+00  0.000000000E+00  1.135589298E+03  1.135589298E+03  0.000000000E+00  0.00000E+00  9.000E+00
      21    -1     0     0   511   512  0.000000000E+00  0.000000000E+00 -2.744508506E+03  2.744508506E+03  0.000000000E+00  0.00000E+00  9.000E+00
      22     1     1     2     0     0 -7.765564911E+01  8.141076514E+01 -1.758101997E+01  1.138736352E+02  3.504023184E-06  0.00000E+00  9.000E+00
      21     1     1     2   513   512  8.954075990E+02 -1.316716259E+03 -1.637499797E+03  2.284053866E+03  2.157918644E-05  0.00000E+00  9.000E+00
      -4     1     1     2     0   513 -8.177519499E+02  1.235305494E+03  4.616160906E+01  1.482170304E+03  1.512408402E-05  0.00000E+00  9.000E+00
#rwgt            1         194   2.9193232833893302E-005        6024     1298967           0
<rwgt>
<wgt id='central'>  0.660483356E+01 </wgt>
<wgt id='sudakovwgt'>  0.275240640E-01 </wgt>
<wgt id='scales0.50.5'>  0.893373948E+01 </wgt>
<wgt id='scales0.51.0'>  0.767334884E+01 </wgt>
<wgt id='scales1.00.5'>  0.768971042E+01 </wgt>
<wgt id='scales1.02.0'>  0.572631555E+01 </wgt>
<wgt id='scales2.01.0'>  0.574683498E+01 </wgt>
<wgt id='scales2.02.0'>  0.498244323E+01 </wgt>
</rwgt>
<scales uborns=' 0.159373598E+04'> </scales>
</event>
<event>
      5  10001  1.19499E+04  1.11018E+03  7.29735E-03  8.99146E-02
      21    -1     0     0   514   511  0.000000000E+00  0.000000000E+00  3.206048790E+02  3.206048790E+02  0.000000000E+00  0.00000E+00  9.000E+00
       2    -1     0     0   515     0  0.000000000E+00  0.000000000E+00 -3.435296121E+03  3.435296121E+03  0.000000000E+00  0.00000E+00  9.000E+00
       2     1     1     2   514     0 -1.583714759E+02 -3.040710707E+02 -5.778147463E+02  6.718709857E+02  7.629394531E-06  0.00000E+00  9.000E+00
      21     1     1     2   515   511  8.361662741E+00  3.766943816E+02  1.400105922E+02  4.019596254E+02  1.160194880E-05  0.00000E+00  9.000E+00
      22     1     1     2     0     0  1.500098132E+02 -7.262331091E+01 -2.676887088E+03  2.682070389E+03  4.315837288E-05  0.00000E+00  9.000E+00
#rwgt            1         187   2.5948068297460065E-002        6024     1299403           0
<rwgt>
<wgt id='central'>  0.119498751E+05 </wgt>
<wgt id='sudakovwgt'>  0.740096413E-03 </wgt>
<wgt id='scales0.50.5'>  0.165020541E+05 </wgt>
<wgt id='scales0.51.0'>  0.142506615E+05 </wgt>
<wgt id='scales1.00.5'>  0.138378065E+05 </wgt>
<wgt id='scales1.02.0'>  0.104188988E+05 </wgt>
<wgt id='scales2.01.0'>  0.101700572E+05 </wgt>
<wgt id='scales2.02.0'>  0.886708648E+04 </wgt>
</rwgt>
<scales uborns=' 0.426540142E+03'> </scales>
</event>
<event>
      5  10001  1.70309E+06  5.00752E+01  7.29735E-03  1.39038E-01
      21    -1     0     0   513   511  0.000000000E+00  0.000000000E+00  8.267664024E+01  8.267664024E+01  0.000000000E+00  0.00000E+00  9.000E+00
       1    -1     0     0   511     0  0.000000000E+00  0.000000000E+00 -5.671161640E+02  5.671161640E+02  0.000000000E+00  0.00000E+00  9.000E+00
      22     1     1     2     0     0  5.849198891E+01 -5.867484475E+01 -2.361286963E+02  2.502415061E+02  0.000000000E+00  0.00000E+00  9.000E+00
      21     1     1     2   513   512 -1.072725032E+02  1.485351061E+02 -7.427761572E+01  1.977049111E+02  2.336015456E-06  0.00000E+00  9.000E+00
       1     1     1     2   512     0  4.878051425E+01 -8.986026139E+01 -1.740332117E+02  2.018463869E+02  3.303624740E-06  0.00000E+00  9.000E+00
#rwgt            1         186   4.2985871311445713E-003        6024     1299603           0
<rwgt>
<wgt id='central'>  0.170309434E+07 </wgt>
<wgt id='sudakovwgt'>  0.299792155E-01 </wgt>
<wgt id='scales0.50.5'>  0.209004251E+07 </wgt>
<wgt id='scales0.51.0'>  0.207601241E+07 </wgt>
<wgt id='scales1.00.5'>  0.171459983E+07 </wgt>
<wgt id='scales1.02.0'>  0.168056125E+07 </wgt>
<wgt id='scales2.01.0'>  0.142343885E+07 </wgt>
<wgt id='scales2.02.0'>  0.140460938E+07 </wgt>
</rwgt>
<scales uborns=' 0.185777593E+03'> </scales>
</event>
<event>
      5  10001  4.00613E+03  1.06454E+01  7.29735E-03  1.92668E-01
      21    -1     0     0   514   515  0.000000000E+00  0.000000000E+00  5.686287931E+02  5.686287931E+02  0.000000000E+00  0.00000E+00  9.000E+00
      21    -1     0     0   515   513  0.000000000E+00  0.000000000E+00 -7.125364832E+02  7.125364832E+02  0.000000000E+00  0.00000E+00  9.000E+00
       4     1     1     2   514     0  1.872244711E+02 -2.603471321E+02  1.892352074E+02  3.723487552E+02  6.607249480E-06  0.00000E+00  9.000E+00
      -4     1     1     2     0   513 -2.914061726E+02  4.221794873E+02 -4.510707118E+02  6.830943302E+02  5.394796609E-06  0.00000E+00  9.000E+00
      22     1     1     2     0     0  1.041817014E+02 -1.618323552E+02  1.179278144E+02  2.257221910E+02  1.907348633E-06  0.00000E+00  9.000E+00
#rwgt            1         204   5.7716061094330069E-005        6024     1299686           0
<rwgt>
<wgt id='central'>  0.400612930E+04 </wgt>
<wgt id='sudakovwgt'>  0.104611704E+00 </wgt>
<wgt id='scales0.50.5'>  0.543040862E+04 </wgt>
<wgt id='scales0.51.0'>  0.475737277E+04 </wgt>
<wgt id='scales1.00.5'>  0.457288591E+04 </wgt>
<wgt id='scales1.02.0'>  0.353891130E+04 </wgt>
<wgt id='scales2.01.0'>  0.342148402E+04 </wgt>
<wgt id='scales2.02.0'>  0.302245020E+04 </wgt>
</rwgt>
<scales uborns=' 0.513043569E+03'> </scales>
</event>
<event>
      5  10001  5.95413E+02  2.28598E+01  7.29735E-03  1.61718E-01
      21    -1     0     0   511   512  0.000000000E+00  0.000000000E+00  8.346281583E+02  8.346281583E+02  0.000000000E+00  0.00000E+00  9.000E+00
       2    -1     0     0   514     0  0.000000000E+00  0.000000000E+00 -7.934727726E+02  7.934727726E+02  0.000000000E+00  0.00000E+00  9.000E+00
       2     1     1     2   511     0 -8.149194064E+01  6.940070702E+02 -1.751325395E+02  7.203875042E+02  9.910874219E-06  0.00000E+00  9.000E+00
      21     1     1     2   514   512  8.423912487E+01 -7.167012251E+02  3.287222876E+02  7.929786999E+02  1.789251617E-05  0.00000E+00  9.000E+00
      22     1     1     2     0     0 -2.747184234E+00  2.269415488E+01 -1.124343624E+02  1.147347268E+02  1.907348633E-06  0.00000E+00  9.000E+00
#rwgt            1         187   3.8908775525595394E-003        6024     1302157           0
<rwgt>
<wgt id='central'>  0.595413486E+03 </wgt>
<wgt id='sudakovwgt'>  0.351728189E-01 </wgt>
<wgt id='scales0.50.5'>  0.770560371E+03 </wgt>
<wgt id='scales0.51.0'>  0.702182956E+03 </wgt>
<wgt id='scales1.00.5'>  0.653393333E+03 </wgt>
<wgt id='scales1.02.0'>  0.545585522E+03 </wgt>
<wgt id='scales2.01.0'>  0.511495682E+03 </wgt>
<wgt id='scales2.02.0'>  0.468690872E+03 </wgt>
</rwgt>
<scales uborns=' 0.710123149E+03'> </scales>
</event>
<event>
      5  10001  6.72634E+01  3.58112E+02  7.29735E-03  1.03152E-01
       2    -1     0     0   513     0  0.000000000E+00  0.000000000E+00  8.976578849E+02  8.976578849E+02  0.000000000E+00  0.00000E+00  9.000E+00
       2    -1     0     0   511     0  0.000000000E+00  0.000000000E+00 -1.408141381E+03  1.408141381E+03  0.000000000E+00  0.00000E+00  9.000E+00
       2     1     1     2   513     0  9.653661092E+02 -3.543924099E+01 -6.468635272E+02  1.162591969E+03  1.525878906E-05  0.00000E+00  9.000E+00
       2     1     1     2   511     0 -6.901932496E+02  1.150766618E+02  3.533222355E+02  7.838660357E+02  1.144409180E-05  0.00000E+00  9.000E+00
      22     1     1     2     0     0 -2.751728596E+02 -7.963742085E+01 -2.169422044E+02  3.593412605E+02  4.672030912E-06  0.00000E+00  9.000E+00
#rwgt            1          97   1.8511031327782341E-003        6024     1302908           0
<rwgt>
<wgt id='central'>  0.672634168E+02 </wgt>
<wgt id='sudakovwgt'>  0.541966680E-03 </wgt>
<wgt id='scales0.50.5'>  0.842511531E+02 </wgt>
<wgt id='scales0.51.0'>  0.787386946E+02 </wgt>
<wgt id='scales1.00.5'>  0.719724786E+02 </wgt>
<wgt id='scales1.02.0'>  0.630940116E+02 </wgt>
<wgt id='scales2.01.0'>  0.581481878E+02 </wgt>
<wgt id='scales2.02.0'>  0.545438149E+02 </wgt>
</rwgt>
<scales uborns=' 0.103899412E+04'> </scales>
</event>
<event>
      5  10001  9.93101E+02  1.40648E+01  7.29735E-03  1.80058E-01
      21    -1     0     0   514   511  0.000000000E+00  0.000000000E+00  1.405524168E+03  1.405524168E+03  0.000000000E+00  0.00000E+00  9.000E+00
       1    -1     0     0   511     0  0.000000000E+00  0.000000000E+00 -4.491302607E+02  4.491302607E+02  0.000000000E+00  0.00000E+00  9.000E+00
       1     1     1     2   512     0  3.339183696E+02 -4.525431303E+02 -3.704267321E+01  5.636212575E+02  1.540708010E-05  0.00000E+00  9.000E+00
      21     1     1     2   514   512 -3.924966795E+02  5.183418254E+02  1.010208744E+03  1.201354901E+03  1.525878906E-05  0.00000E+00  9.000E+00
      22     1     1     2     0     0  5.857830998E+01 -6.579869508E+01 -1.677216364E+01  8.967827021E+01  2.261837239E-06  0.00000E+00  9.000E+00
#rwgt            1         186   1.3546723214509695E-003        6024     1306445           0
<rwgt>
<wgt id='central'>  0.993101362E+03 </wgt>
<wgt id='sudakovwgt'>  0.289922332E-01 </wgt>
<wgt id='scales0.50.5'>  0.131756960E+04 </wgt>
<wgt id='scales0.51.0'>  0.117331041E+04 </wgt>
<wgt id='scales1.00.5'>  0.111520334E+04 </wgt>
<wgt id='scales1.02.0'>  0.891302061E+03 </wgt>
<wgt id='scales2.01.0'>  0.851828709E+03 </wgt>
<wgt id='scales2.02.0'>  0.764511045E+03 </wgt>
</rwgt>
<scales uborns=' 0.650480362E+03'> </scales>
</event>
<event>
      4  10001  4.87408E+06  8.94427E-01  7.29735E-03  7.52121E-01
       1    -1     0     0   512     0  0.000000000E+00  0.000000000E+00  4.779726177E+01  4.779726177E+01  0.000000000E+00  0.00000E+00  9.000E+00
      21    -1     0     0   513   515  0.000000000E+00  0.000000000E+00 -6.725776858E+02  6.725776858E+02  0.000000000E+00  0.00000E+00  9.000E+00
       1     1     1     2   513     0 -1.277394906E+02  8.930969605E+01 -1.343594601E+02  2.057815925E+02  3.303624740E-06  0.00000E+00  9.000E+00
      21     1     1     2   512   515  1.277394906E+02 -8.930969605E+01 -4.904209639E+02  5.145933551E+02  5.394796609E-06  0.00000E+00  9.000E+00
#rwgt            1         181   7.2108699383625484E-004        6024     1306779           0
<rwgt>
<wgt id='central'>  0.487407754E+07 </wgt>
<wgt id='sudakovwgt'>  0.147050673E+01 </wgt>
<wgt id='scales0.50.5'>  0.613014190E+07 </wgt>
<wgt id='scales0.51.0'>  0.597336505E+07 </wgt>
<wgt id='scales1.00.5'>  0.500200503E+07 </wgt>
<wgt id='scales1.02.0'>  0.473279025E+07 </wgt>
<wgt id='scales2.01.0'>  0.405598051E+07 </wgt>
<wgt id='scales2.02.0'>  0.393840581E+07 </wgt>
</rwgt>
<scales uborns=' 0.155864041E+03'> </scales>
</event>
<event>
      5  10001  1.45994E+04  8.51094E+01  7.29735E-03  1.27061E-01
       2    -1     0     0   513     0  0.000000000E+00  0.000000000E+00  6.025800833E+02  6.025800833E+02  0.000000000E+00  0.00000E+00  9.000E+00
      21    -1     0     0   511   514  0.000000000E+00  0.000000000E+00 -7.620028446E+02  7.620028446E+02  0.000000000E+00  0.00000E+00  9.000E+00
      22     1     1     2     0     0  1.892442265E+02 -2.425808830E+02  3.152362363E+02  4.404914831E+02  5.394796609E-06  0.00000E+00  9.000E+00
      21     1     1     2   513   514 -1.864988431E+02  3.634907772E+02 -6.153128806E+02  7.385914328E+02  0.000000000E+00  0.00000E+00  9.000E+00
       2     1     1     2   511     0 -2.745383351E+00 -1.209098942E+02  1.406538830E+02  1.855000120E+02  1.907348633E-06  0.00000E+00  9.000E+00
#rwgt            1         182   3.1447840519883267E-003        6024     1307566           0
<rwgt>
<wgt id='central'>  0.145993685E+05 </wgt>
<wgt id='sudakovwgt'>  0.777189086E-03 </wgt>
<wgt id='scales0.50.5'>  0.190723608E+05 </wgt>
<wgt id='scales0.51.0'>  0.174240825E+05 </wgt>
<wgt id='scales1.00.5'>  0.159804698E+05 </wgt>
<wgt id='scales1.02.0'>  0.134084099E+05 </wgt>
<wgt id='scales2.01.0'>  0.124167196E+05 </wgt>
<wgt id='scales2.02.0'>  0.114037882E+05 </wgt>
</rwgt>
<scales uborns=' 0.412387418E+03'> </scales>
</event>
<event>
      5  10001  4.27161E+01  9.36660E+02  7.29735E-03  9.16785E-02
      21    -1     0     0   511   512  0.000000000E+00  0.000000000E+00  9.591880406E+02  9.591880406E+02  0.000000000E+00  0.00000E+00  9.000E+00
       2    -1     0     0   515     0  0.000000000E+00  0.000000000E+00 -1.324134241E+03  1.324134241E+03  0.000000000E+00  0.00000E+00  9.000E+00
      22     1     1     2     0     0  6.904613435E+01 -1.091403587E+02 -8.402668860E+01  1.540761856E+02  4.370284743E-06  0.00000E+00  9.000E+00
      21     1     1     2   515   512  2.253425576E+02  1.076158263E+03 -1.642893798E+02  1.111704491E+03  8.946258087E-06  0.00000E+00  9.000E+00
       2     1     1     2   511     0 -2.943886919E+02 -9.670179043E+02 -1.166301317E+02  1.017541604E+03  2.757421931E-05  0.00000E+00  9.000E+00
#rwgt            1         187   4.5737272880628788E-003        6024     1308797           0
<rwgt>
<wgt id='central'>  0.427161371E+02 </wgt>
<wgt id='sudakovwgt'>  0.488239554E-03 </wgt>
<wgt id='scales0.50.5'>  0.560724267E+02 </wgt>
<wgt id='scales0.51.0'>  0.499288220E+02 </wgt>
<wgt id='scales1.00.5'>  0.479721990E+02 </wgt>
<wgt id='scales1.02.0'>  0.383209928E+02 </wgt>
<wgt id='scales2.01.0'>  0.369745312E+02 </wgt>
<wgt id='scales2.02.0'>  0.331701804E+02 </wgt>
</rwgt>
<scales uborns=' 0.112689853E+04'> </scales>
</event>
<event>
      5  10001  2.74839E+03  4.50377E+01  7.29735E-03  1.41716E-01
      -5    -1     0     0     0   513  0.000000000E+00  0.000000000E+00  1.587567773E+03  1.587567773E+03  0.000000000E+00  0.00000E+00  9.000E+00
       2    -1     0     0   513     0  0.000000000E+00  0.000000000E+00 -6.492306487E+02  6.492306487E+02  0.000000000E+00  0.00000E+00  9.000E+00
       2     1     1     2   511     0 -3.051400002E+02 -4.529901999E+02 -4.724610885E+02  7.221703547E+02  1.427329020E-05  0.00000E+00  9.000E+00
      -5     1     1     2     0   511  1.921093282E+02  3.285319740E+02  1.041671624E+03  1.109017143E+03  0.000000000E+00  0.00000E+00  9.000E+00
      22     1     1     2     0     0  1.130306720E+02  1.244582260E+02  3.691265890E+02  4.056109239E+02  5.394796609E-06  0.00000E+00  9.000E+00
#rwgt            1         178   2.3519229885295658E-005        6024     1309014           0
<rwgt>
<wgt id='central'>  0.274838935E+04 </wgt>
<wgt id='sudakovwgt'>  0.421001550E-02 </wgt>
<wgt id='scales0.50.5'>  0.329257007E+04 </wgt>
<wgt id='scales0.51.0'>  0.325918051E+04 </wgt>
<wgt id='scales1.00.5'>  0.277654663E+04 </wgt>
<wgt id='scales1.02.0'>  0.269349838E+04 </wgt>
<wgt id='scales2.01.0'>  0.235007449E+04 </wgt>
<wgt id='scales2.02.0'>  0.230313814E+04 </wgt>
</rwgt>
<scales uborns=' 0.546899228E+03'> </scales>
</event>
<event>
      5  10001  4.37214E+04  2.28404E+01  7.29735E-03  1.61747E-01
      21    -1     0     0   512   513  0.000000000E+00  0.000000000E+00  1.129484182E+02  1.129484182E+02  0.000000000E+00  0.00000E+00  9.000E+00
       2    -1     0     0   511     0  0.000000000E+00  0.000000000E+00 -1.595554672E+03  1.595554672E+03  0.000000000E+00  0.00000E+00  9.000E+00
       2     1     1     2   512     0 -1.903174846E+02 -5.573475555E+01 -6.878491150E+02  7.158655691E+02  0.000000000E+00  0.00000E+00  9.000E+00
      21     1     1     2   511   513  3.236874096E+02  1.122870499E+02 -2.375511335E+02  4.169082174E+02  3.814697266E-06  0.00000E+00  9.000E+00
      22     1     1     2     0     0 -1.333699250E+02 -5.655229432E+01 -5.572060053E+02  5.757293037E+02  7.629394531E-06  0.00000E+00  9.000E+00
#rwgt            1         187   1.7356119625117072E-002        6024     1329952           0
<rwgt>
<wgt id='central'>  0.437214482E+05 </wgt>
<wgt id='sudakovwgt'>  0.665147151E-01 </wgt>
<wgt id='scales0.50.5'>  0.553204159E+05 </wgt>
<wgt id='scales0.51.0'>  0.524140691E+05 </wgt>
<wgt id='scales1.00.5'>  0.461457405E+05 </wgt>
<wgt id='scales1.02.0'>  0.414146345E+05 </wgt>
<wgt id='scales2.01.0'>  0.370469220E+05 </wgt>
<wgt id='scales2.02.0'>  0.350923057E+05 </wgt>
</rwgt>
<scales uborns=' 0.342930680E+03'> </scales>
</event>
<event>
      5  10001  6.43062E+03  6.16586E+01  7.29735E-03  1.34073E-01
       2    -1     0     0   515     0  0.000000000E+00  0.000000000E+00  3.760859250E+02  3.760859250E+02  0.000000000E+00  0.00000E+00  9.000E+00
      21    -1     0     0   514   512  0.000000000E+00  0.000000000E+00 -6.448366062E+02  6.448366062E+02  0.000000000E+00  0.00000E+00  9.000E+00
       2     1     1     2   514     0 -2.140620544E+02 -4.188660417E+02 -1.410217539E+01  4.706061998E+02  7.072638023E-06  0.00000E+00  9.000E+00
      21     1     1     2   515   512  2.236678723E+02  3.881430935E+02 -2.595831074E+02  5.177506811E+02  3.814697266E-06  0.00000E+00  9.000E+00
      22     1     1     2     0     0 -9.605817872E+00  3.072294818E+01  4.934601548E+00  3.256565022E+01  1.976862425E-07  0.00000E+00  9.000E+00
#rwgt            1         182   2.2122098803973008E-003        6024     1330894           0
<rwgt>
<wgt id='central'>  0.643062493E+04 </wgt>
<wgt id='sudakovwgt'>  0.209201904E-02 </wgt>
<wgt id='scales0.50.5'>  0.821856326E+04 </wgt>
<wgt id='scales0.51.0'>  0.765027058E+04 </wgt>
<wgt id='scales1.00.5'>  0.690831216E+04 </wgt>
<wgt id='scales1.02.0'>  0.600647735E+04 </wgt>
<wgt id='scales2.01.0'>  0.548387056E+04 </wgt>
<wgt id='scales2.02.0'>  0.512217240E+04 </wgt>
</rwgt>
<scales uborns=' 0.473564185E+03'> </scales>
</event>
<event>
      5  10001  8.73158E+01  8.53126E+00  7.29735E-03  2.04085E-01
       2    -1     0     0   512     0  0.000000000E+00  0.000000000E+00  7.894151030E+02  7.894151030E+02  0.000000000E+00  0.00000E+00  9.000E+00
      21    -1     0     0   511   513  0.000000000E+00  0.000000000E+00 -1.881528798E+03  1.881528798E+03  0.000000000E+00  0.00000E+00  9.000E+00
       2     1     1     2   511     0  7.418414902E+02  6.047885342E+02  2.289639628E+02  9.841353890E+02  3.766711742E-05  0.00000E+00  9.000E+00
      21     1     1     2   512   513 -7.712588506E+02 -6.232761888E+02 -1.321362365E+03  1.652062929E+03  1.525878906E-05  0.00000E+00  9.000E+00
      22     1     1     2     0     0  2.941736047E+01  1.848765462E+01  2.847073458E-01  3.474558287E+01  7.125244637E-07  0.00000E+00  9.000E+00
#rwgt            1         182   2.0371860969170016E-003        6024     1332186           0
<rwgt>
<wgt id='central'>  0.873158010E+02 </wgt>
<wgt id='sudakovwgt'>  0.419951172E-02 </wgt>
<wgt id='scales0.50.5'>  0.117195714E+03 </wgt>
<wgt id='scales0.51.0'>  0.102300614E+03 </wgt>
<wgt id='scales1.00.5'>  0.100029092E+03 </wgt>
<wgt id='scales1.02.0'>  0.769460479E+02 </wgt>
<wgt id='scales2.01.0'>  0.754275726E+02 </wgt>
<wgt id='scales2.02.0'>  0.664696838E+02 </wgt>
</rwgt>
<scales uborns=' 0.991997301E+03'> </scales>
</event>
<event>
      5  10001  5.77623E+03  3.89738E+00  7.29735E-03  2.66158E-01
      21    -1     0     0   515   511  0.000000000E+00  0.000000000E+00  1.010861525E+03  1.010861525E+03  0.000000000E+00  0.00000E+00  9.000E+00
      21    -1     0     0   514   515  0.000000000E+00  0.000000000E+00 -3.994223388E+02  3.994223388E+02  0.000000000E+00  0.00000E+00  9.000E+00
       1     1     1     2   514     0  2.879996061E+02  2.164242734E+02 -1.121144815E+02  3.772968277E+02  1.321449896E-05  0.00000E+00  9.000E+00
      -1     1     1     2     0   511 -3.868042070E+02 -2.879573328E+02  7.648760347E+02  9.041970297E+02  1.078959322E-05  0.00000E+00  9.000E+00
      22     1     1     2     0     0  9.880460088E+01  7.153305943E+01 -4.132236693E+01  1.287900064E+02  2.977847099E-06  0.00000E+00  9.000E+00
#rwgt            1         201   6.3502744904716011E-005        6024     1337807           0
<rwgt>
<wgt id='central'>  0.577623248E+04 </wgt>
<wgt id='sudakovwgt'>  0.509919214E-01 </wgt>
<wgt id='scales0.50.5'>  0.787160620E+04 </wgt>
<wgt id='scales0.51.0'>  0.686894160E+04 </wgt>
<wgt id='scales1.00.5'>  0.661939066E+04 </wgt>
<wgt id='scales1.02.0'>  0.508453954E+04 </wgt>
<wgt id='scales2.01.0'>  0.492751981E+04 </wgt>
<wgt id='scales2.02.0'>  0.433746047E+04 </wgt>
</rwgt>
<scales uborns=' 0.482233988E+03'> </scales>
</event>
<event>
      5  10001  1.34915E+02  2.31561E+01  7.29735E-03  1.61284E-01
       1    -1     0     0   514     0  0.000000000E+00  0.000000000E+00  7.905969582E+02  7.905969582E+02  0.000000000E+00  0.00000E+00  9.000E+00
      21    -1     0     0   512   513  0.000000000E+00  0.000000000E+00 -1.072322302E+03  1.072322302E+03  0.000000000E+00  0.00000E+00  9.000E+00
       1     1     1     2   512     0  5.486145776E+01  7.022634137E+02 -4.415374992E+01  7.057855449E+02  2.085038291E-05  0.00000E+00  9.000E+00
      21     1     1     2   514   513 -7.632618965E+01 -9.151414007E+02 -2.013133228E+02  9.401258025E+02  1.321449896E-05  0.00000E+00  9.000E+00
      22     1     1     2     0     0  2.146473189E+01  2.128779870E+02 -3.625827113E+01  2.170079130E+02  2.567846683E-06  0.00000E+00  9.000E+00
#rwgt            1         181   1.3984172550462752E-003        6024     1338323           0
<rwgt>
<wgt id='central'>  0.134914550E+03 </wgt>
<wgt id='sudakovwgt'>  0.434660073E-03 </wgt>
<wgt id='scales0.50.5'>  0.177519252E+03 </wgt>
<wgt id='scales0.51.0'>  0.158298833E+03 </wgt>
<wgt id='scales1.00.5'>  0.151296188E+03 </wgt>
<wgt id='scales1.02.0'>  0.121207002E+03 </wgt>
<wgt id='scales2.01.0'>  0.116401921E+03 </wgt>
<wgt id='scales2.02.0'>  0.104574939E+03 </wgt>
</rwgt>
<scales uborns=' 0.918798996E+03'> </scales>
</event>
<event>
      5  10001  2.52199E+04  8.95522E-01  7.29735E-03  7.51435E-01
       2    -1     0     0   513     0  0.000000000E+00  0.000000000E+00  3.676917861E+03  3.676917861E+03  0.000000000E+00  0.00000E+00  9.000E+00
      21    -1     0     0   515   513  0.000000000E+00  0.000000000E+00 -3.888066712E+01  3.888066712E+01  0.000000000E+00  0.00000E+00  9.000E+00
       2     1     1     2   511     0  2.579495033E+02 -2.697969038E+02  1.989361400E+03  2.024076850E+03  3.051757812E-05  0.00000E+00  9.000E+00
      21     1     1     2   515   511 -2.603679497E+02  2.713718683E+02  1.629857719E+03  1.672683575E+03  3.051757812E-05  0.00000E+00  9.000E+00
      22     1     1     2     0     0  2.418446396E+00 -1.574964598E+00  1.881807491E+01  1.903810232E+01  2.384185791E-07  0.00000E+00  9.000E+00
#rwgt            1         182   2.0963586470564833E-002        6024     1338585           0
<rwgt>
<wgt id='central'>  0.252199476E+05 </wgt>
<wgt id='sudakovwgt'>  0.378390811E+00 </wgt>
<wgt id='scales0.50.5'>  0.327007189E+05 </wgt>
<wgt id='scales0.51.0'>  0.301656677E+05 </wgt>
<wgt id='scales1.00.5'>  0.273393206E+05 </wgt>
<wgt id='scales1.02.0'>  0.232954223E+05 </wgt>
<wgt id='scales2.01.0'>  0.214101479E+05 </wgt>
<wgt id='scales2.02.0'>  0.197763844E+05 </wgt>
</rwgt>
<scales uborns=' 0.376142942E+03'> </scales>
</event>
<event>
      5  10001  5.15552E+00  2.93134E+03  7.29735E-03  8.10251E-02
       2    -1     0     0   512     0  0.000000000E+00  0.000000000E+00  2.730668351E+03  2.730668351E+03  0.000000000E+00  0.00000E+00  9.000E+00
       2    -1     0     0   511     0  0.000000000E+00  0.000000000E+00 -1.075274840E+03  1.075274840E+03  0.000000000E+00  0.00000E+00  9.000E+00
       2     1     1     2   512     0 -5.227268609E+02  7.212147585E+01  1.303524075E+02  5.435408251E+02  1.401609274E-05  0.00000E+00  9.000E+00
      22     1     1     2     0     0 -2.854033355E+02  5.608241025E+01  2.189265505E+03  2.208502604E+03  4.315837288E-05  0.00000E+00  9.000E+00
       2     1     1     2   511     0  8.081301964E+02 -1.282038861E+02 -6.642244021E+02  1.053899761E+03  3.658929080E-05  0.00000E+00  9.000E+00
#rwgt            1          97   2.6679132741888041E-003        6024     1354912           0
<rwgt>
<wgt id='central'>  0.515552181E+01 </wgt>
<wgt id='sudakovwgt'>  0.416599403E-03 </wgt>
<wgt id='scales0.50.5'>  0.664097171E+01 </wgt>
<wgt id='scales0.51.0'>  0.598474830E+01 </wgt>
<wgt id='scales1.00.5'>  0.572081911E+01 </wgt>
<wgt id='scales1.02.0'>  0.467599880E+01 </wgt>
<wgt id='scales2.01.0'>  0.448890112E+01 </wgt>
<wgt id='scales2.02.0'>  0.407138296E+01 </wgt>
</rwgt>
<scales uborns=' 0.167238338E+04'> </scales>
</event>
<event>
      5  10001  2.73620E+03  7.57631E+02  7.29735E-03  9.39813E-02
      21    -1     0     0   511   513  0.000000000E+00  0.000000000E+00  2.355115767E+02  2.355115767E+02  0.000000000E+00  0.00000E+00  9.000E+00
       2    -1     0     0   512     0  0.000000000E+00  0.000000000E+00 -1.554486691E+03  1.554486691E+03  0.000000000E+00  0.00000E+00  9.000E+00
       2     1     1     2   511     0  1.495343415E+02  7.390419614E+01  1.543508516E+02  2.272587399E+02  8.946258087E-06  0.00000E+00  9.000E+00
      21     1     1     2   512   513 -2.602412929E+02  9.397271155E+01 -5.263054373E+02  5.946039139E+02  7.629394531E-06  0.00000E+00  9.000E+00
      22     1     1     2     0     0  1.107069514E+02 -1.678769077E+02 -9.470205289E+02  9.681356142E+02  1.525878906E-05  0.00000E+00  9.000E+00
#rwgt            1         187   2.2320830836170787E-003        6024     1355016           0
<rwgt>
<wgt id='central'>  0.273620286E+04 </wgt>
<wgt id='sudakovwgt'>  0.623215455E-03 </wgt>
<wgt id='scales0.50.5'>  0.350955658E+04 </wgt>
<wgt id='scales0.51.0'>  0.324467145E+04 </wgt>
<wgt id='scales1.00.5'>  0.295957506E+04 </wgt>
<wgt id='scales1.02.0'>  0.253780342E+04 </wgt>
<wgt id='scales2.01.0'>  0.233968357E+04 </wgt>
<wgt id='scales2.02.0'>  0.217003763E+04 </wgt>
</rwgt>
<scales uborns=' 0.547312023E+03'> </scales>
</event>
<event>
      4  10001  1.04539E+07  8.94427E-01  7.29735E-03  7.51931E-01
       2    -1     0     0   515     0  0.000000000E+00  0.000000000E+00  4.069322964E+02  4.069322964E+02  0.000000000E+00  0.00000E+00  9.000E+00
      21    -1     0     0   514   511  0.000000000E+00  0.000000000E+00 -4.702775469E+01  4.702775469E+01  0.000000000E+00  0.00000E+00  9.000E+00
       2     1     1     2   514     0 -1.362361293E+02  1.646410060E+01  1.512615360E+02  2.042336941E+02  1.907348633E-06  0.00000E+00  9.000E+00
      21     1     1     2   515   511  1.362361293E+02 -1.646410060E+01  2.086430057E+02  2.497263569E+02  2.697398305E-06  0.00000E+00  9.000E+00
#rwgt            1         182   2.8069680421946839E-003        6024     1355238           0
<rwgt>
<wgt id='central'>  0.104539278E+08 </wgt>
<wgt id='sudakovwgt'>  0.451256553E+01 </wgt>
<wgt id='scales0.50.5'>  0.123750329E+08 </wgt>
<wgt id='scales0.51.0'>  0.128641640E+08 </wgt>
<wgt id='scales1.00.5'>  0.100564138E+08 </wgt>
<wgt id='scales1.02.0'>  0.107265592E+08 </wgt>
<wgt id='scales2.01.0'>  0.867049894E+07 </wgt>
<wgt id='scales2.02.0'>  0.889664335E+07 </wgt>
</rwgt>
<scales uborns=' 0.137227364E+03'> </scales>
</event>
<event>
      5  10001  1.37629E+02  2.48817E+01  7.29735E-03  1.58905E-01
       2    -1     0     0   511     0  0.000000000E+00  0.000000000E+00  3.484838594E+03  3.484838594E+03  0.000000000E+00  0.00000E+00  9.000E+00
      21    -1     0     0   512   513  0.000000000E+00  0.000000000E+00 -4.906398499E+02  4.906398499E+02  0.000000000E+00  0.00000E+00  9.000E+00
       2     1     1     2   512     0  2.367233899E+02  8.911249499E+02  2.763501430E+03  2.913259651E+03  7.475249459E-05  0.00000E+00  9.000E+00
      21     1     1     2   511   513 -2.128733073E+02 -8.840345862E+02  8.371868623E+01  9.131489545E+02  4.156969970E-06  0.00000E+00  9.000E+00
      22     1     1     2     0     0 -2.385008261E+01 -7.090363645E+00  1.469786279E+02  1.490698385E+02  2.697398305E-06  0.00000E+00  9.000E+00
#rwgt            1         182   1.0837561822780287E-002        6024     1368259           0
<rwgt>
<wgt id='central'>  0.137629301E+03 </wgt>
<wgt id='sudakovwgt'>  0.406365732E-01 </wgt>
<wgt id='scales0.50.5'>  0.187100794E+03 </wgt>
<wgt id='scales0.51.0'>  0.161494052E+03 </wgt>
<wgt id='scales1.00.5'>  0.159451663E+03 </wgt>
<wgt id='scales1.02.0'>  0.119949547E+03 </wgt>
<wgt id='scales2.01.0'>  0.118736745E+03 </wgt>
<wgt id='scales2.02.0'>  0.103484141E+03 </wgt>
</rwgt>
<scales uborns=' 0.915593445E+03'> </scales>
</event>
<event>
      5  10001  1.04597E+05  4.07352E+01  7.29735E-03  1.44351E-01
       2    -1     0     0   511     0  0.000000000E+00  0.000000000E+00  8.551732641E+02  8.551732641E+02  0.000000000E+00  0.00000E+00  9.000E+00
      21    -1     0     0   515   511  0.000000000E+00  0.000000000E+00 -1.187442232E+02  1.187442232E+02  0.000000000E+00  0.00000E+00  9.000E+00
      22     1     1     2     0     0 -1.983284783E+02  9.691078018E+01  4.219780320E+02  4.762261480E+02  0.000000000E+00  0.00000E+00  9.000E+00
      21     1     1     2   515   514  2.436936109E+02 -1.621768412E+02  1.865828024E+02  3.471326058E+02  2.697398305E-06  0.00000E+00  9.000E+00
       2     1     1     2   514     0 -4.536513266E+01  6.526606103E+01  1.278682065E+02  1.505587334E+02  0.000000000E+00  0.00000E+00  9.000E+00
#rwgt            1         182   7.0911251896971002E-003        6024     1371439           0
<rwgt>
<wgt id='central'>  0.104597410E+06 </wgt>
<wgt id='sudakovwgt'>  0.636901389E-03 </wgt>
<wgt id='scales0.50.5'>  0.129488897E+06 </wgt>
<wgt id='scales0.51.0'>  0.125859021E+06 </wgt>
<wgt id='scales1.00.5'>  0.107613663E+06 </wgt>
<wgt id='scales1.02.0'>  0.101380509E+06 </wgt>
<wgt id='scales2.01.0'>  0.883572184E+05 </wgt>
<wgt id='scales2.02.0'>  0.856401212E+05 </wgt>
</rwgt>
<scales uborns=' 0.296255410E+03'> </scales>
</event>
<event>
      5  10001  5.43041E+02  4.63469E+02  7.29735E-03  9.97971E-02
      21    -1     0     0   513   514  0.000000000E+00  0.000000000E+00  1.572405014E+03  1.572405014E+03  0.000000000E+00  0.00000E+00  9.000E+00
       2    -1     0     0   514     0  0.000000000E+00  0.000000000E+00 -9.733049234E+02  9.733049234E+02  0.000000000E+00  0.00000E+00  9.000E+00
      22     1     1     2     0     0 -3.762433973E+01 -2.132497764E+01 -2.005454801E+01  4.767106573E+01  1.143415337E-06  0.00000E+00  9.000E+00
      21     1     1     2   513   512  7.058015842E+02  1.438287489E+02  1.331413928E+03  1.513771988E+03  3.051757812E-05  0.00000E+00  9.000E+00
       2     1     1     2   512     0 -6.681772445E+02 -1.225037712E+02 -7.122592888E+02  9.842668838E+02  1.525878906E-05  0.00000E+00  9.000E+00
#rwgt            1         187   4.3348915393121162E-003        6024     1372721           0
<rwgt>
<wgt id='central'>  0.543040654E+03 </wgt>
<wgt id='sudakovwgt'>  0.841406223E-03 </wgt>
<wgt id='scales0.50.5'>  0.732586830E+03 </wgt>
<wgt id='scales0.51.0'>  0.640212711E+03 </wgt>
<wgt id='scales1.00.5'>  0.621394543E+03 </wgt>
<wgt id='scales1.02.0'>  0.479139699E+03 </wgt>
<wgt id='scales2.01.0'>  0.466632355E+03 </wgt>
<wgt id='scales2.02.0'>  0.411722294E+03 </wgt>
</rwgt>
<scales uborns=' 0.721458678E+03'> </scales>
</event>
<event>
      5  10001  7.24219E+02  2.23303E+01  7.29735E-03  1.62514E-01
       2    -1     0     0   513     0  0.000000000E+00  0.000000000E+00  2.678538052E+03  2.678538052E+03  0.000000000E+00  0.00000E+00  9.000E+00
      21    -1     0     0   512   513  0.000000000E+00  0.000000000E+00 -6.768042423E+02  6.768042423E+02  0.000000000E+00  0.00000E+00  9.000E+00
       2     1     1     2   511     0 -4.608188730E+02 -4.477927485E+01  1.593903760E+03  1.659785653E+03  2.157918644E-05  0.00000E+00  9.000E+00
      21     1     1     2   512   511  6.833839856E+02  6.581332881E+01 -4.421931533E+02  8.166271186E+02  2.472206382E-05  0.00000E+00  9.000E+00
      22     1     1     2     0     0 -2.225651126E+02 -2.103405397E+01  8.500232033E+02  8.789295233E+02  0.000000000E+00  0.00000E+00  9.000E+00
#rwgt            1         182   1.1183024386681258E-002        6024     1372988           0
<rwgt>
<wgt id='central'>  0.724218770E+03 </wgt>
<wgt id='sudakovwgt'>  0.778225944E-03 </wgt>
<wgt id='scales0.50.5'>  0.988578642E+03 </wgt>
<wgt id='scales0.51.0'>  0.854676452E+03 </wgt>
<wgt id='scales1.00.5'>  0.837682416E+03 </wgt>
<wgt id='scales1.02.0'>  0.632420595E+03 </wgt>
<wgt id='scales2.01.0'>  0.621785082E+03 </wgt>
<wgt id='scales2.02.0'>  0.542970692E+03 </wgt>
</rwgt>
<scales uborns=' 0.686635769E+03'> </scales>
</event>
<event>
      5  10001  1.59327E+01  8.72224E+00  7.29735E-03  2.02880E-01
      21    -1     0     0   514   515  0.000000000E+00  0.000000000E+00  2.056113523E+03  2.056113523E+03  0.000000000E+00  0.00000E+00  9.000E+00
       2    -1     0     0   511     0  0.000000000E+00  0.000000000E+00 -1.254677885E+03  1.254677885E+03  0.000000000E+00  0.00000E+00  9.000E+00
       2     1     1     2   514     0 -1.340152828E+03 -1.171917100E+02 -2.674475183E+02  1.371594574E+03  2.123933549E-05  0.00000E+00  9.000E+00
      21     1     1     2   511   515  1.347710809E+03  1.215453849E+02  1.199501911E+03  1.808287184E+03  3.051757812E-05  0.00000E+00  9.000E+00
      22     1     1     2     0     0 -7.557980547E+00 -4.353674964E+00 -1.306187542E+02  1.309096502E+02  1.907348633E-06  0.00000E+00  9.000E+00
#rwgt            1         187   2.9728222473501698E-003        6024     1376490           0
<rwgt>
<wgt id='central'>  0.159327270E+02 </wgt>
<wgt id='sudakovwgt'>  0.109304647E+00 </wgt>
<wgt id='scales0.50.5'>  0.215598947E+02 </wgt>
<wgt id='scales0.51.0'>  0.185632006E+02 </wgt>
<wgt id='scales1.00.5'>  0.185047472E+02 </wgt>
<wgt id='scales1.02.0'>  0.138633077E+02 </wgt>
<wgt id='scales2.01.0'>  0.138290848E+02 </wgt>
<wgt id='scales2.02.0'>  0.120329171E+02 </wgt>
</rwgt>
<scales uborns=' 0.134921801E+04'> </scales>
</event>
<event>
      5  10001  9.83166E+03  7.87569E+01  7.29735E-03  1.28679E-01
      -4    -1     0     0     0   511  0.000000000E+00  0.000000000E+00  1.155923656E+02  1.155923656E+02  0.000000000E+00  0.00000E+00  9.000E+00
       1    -1     0     0   511     0  0.000000000E+00  0.000000000E+00 -1.681612130E+03  1.681612130E+03  0.000000000E+00  0.00000E+00  9.000E+00
       1     1     1     2   512     0  2.231371330E+01  4.398936345E+02 -7.652884809E+02  8.829896774E+02  1.078959322E-05  0.00000E+00  9.000E+00
      22     1     1     2     0     0 -6.969154103E+00 -3.869426017E+01 -8.226822056E+01  9.118045291E+01  9.536743164E-07  0.00000E+00  9.000E+00
      -4     1     1     2     0   512 -1.534455919E+01 -4.011993744E+02 -7.184630634E+02  8.230343656E+02  0.000000000E+00  0.00000E+00  9.000E+00
#rwgt            1         173   5.7331438722243502E-005        6024     1378342           0
<rwgt>
<wgt id='central'>  0.983165514E+04 </wgt>
<wgt id='sudakovwgt'>  0.110245039E-02 </wgt>
<wgt id='scales0.50.5'>  0.118722327E+05 </wgt>
<wgt id='scales0.51.0'>  0.117156145E+05 </wgt>
<wgt id='scales1.00.5'>  0.996309284E+04 </wgt>
<wgt id='scales1.02.0'>  0.964326668E+04 </wgt>
<wgt id='scales2.01.0'>  0.837266582E+04 </wgt>
<wgt id='scales2.02.0'>  0.821222960E+04 </wgt>
</rwgt>
<scales uborns=' 0.440807209E+03'> </scales>
</event>
<event>
      5  10001  1.71897E+01  4.50218E+01  7.29735E-03  1.41725E-01
       2    -1     0     0   512     0  0.000000000E+00  0.000000000E+00  1.770872789E+03  1.770872789E+03  0.000000000E+00  0.00000E+00  9.000E+00
       1    -1     0     0   513     0  0.000000000E+00  0.000000000E+00 -1.260208752E+03  1.260208752E+03  0.000000000E+00  0.00000E+00  9.000E+00
      22     1     1     2     0     0  2.474212027E+02 -6.445455600E+01  1.781826763E+02  3.116419539E+02  8.092194914E-06  0.00000E+00  9.000E+00
       1     1     1     2   512     0 -1.297387586E+03  2.940293743E+02 -4.340665716E+02  1.399314693E+03  2.018548058E-05  0.00000E+00  9.000E+00
       2     1     1     2   513     0  1.049966383E+03 -2.295748183E+02  7.665479318E+02  1.320124894E+03  1.525878906E-05  0.00000E+00  9.000E+00
#rwgt            1          92   2.3982009155545971E-003        6024     1379761           0
<rwgt>
<wgt id='central'>  0.171896894E+02 </wgt>
<wgt id='sudakovwgt'>  0.137240635E-02 </wgt>
<wgt id='scales0.50.5'>  0.220761446E+02 </wgt>
<wgt id='scales0.51.0'>  0.200326684E+02 </wgt>
<wgt id='scales1.00.5'>  0.189431730E+02 </wgt>
<wgt id='scales1.02.0'>  0.156914937E+02 </wgt>
<wgt id='scales2.01.0'>  0.149169753E+02 </wgt>
<wgt id='scales2.02.0'>  0.136168534E+02 </wgt>
</rwgt>
<scales uborns=' 0.133036005E+04'> </scales>
</event>
<event>
      5  10001  1.56419E+01  4.38546E+01  7.29735E-03  1.42405E-01
       2    -1     0     0   513     0  0.000000000E+00  0.000000000E+00  9.525361175E+02  9.525361175E+02  0.000000000E+00  0.00000E+00  9.000E+00
      21    -1     0     0   511   514  0.000000000E+00  0.000000000E+00 -1.945394851E+03  1.945394851E+03  0.000000000E+00  0.00000E+00  9.000E+00
       2     1     1     2   511     0 -5.426613876E+02 -1.228412951E+03 -3.341703194E+02  1.383889288E+03  1.375408659E-05  0.00000E+00  9.000E+00
      21     1     1     2   513   514  5.169573372E+02  1.232540212E+03 -6.393409927E+02  1.481606280E+03  7.629394531E-06  0.00000E+00  9.000E+00
      22     1     1     2     0     0  2.570405045E+01 -4.127261244E+00 -1.934742159E+01  3.243540067E+01  4.129530925E-07  0.00000E+00  9.000E+00
#rwgt            1         182   1.6944764603059402E-003        6024     1391388           0
<rwgt>
<wgt id='central'>  0.156418884E+02 </wgt>
<wgt id='sudakovwgt'>  0.117387114E-02 </wgt>
<wgt id='scales0.50.5'>  0.209481987E+02 </wgt>
<wgt id='scales0.51.0'>  0.182233000E+02 </wgt>
<wgt id='scales1.00.5'>  0.179808064E+02 </wgt>
<wgt id='scales1.02.0'>  0.137394026E+02 </wgt>
<wgt id='scales2.01.0'>  0.135773741E+02 </wgt>
<wgt id='scales2.02.0'>  0.119259815E+02 </wgt>
</rwgt>
<scales uborns=' 0.135384161E+04'> </scales>
</event>
<event>
      4  10001  5.39243E+01  8.94427E-01  7.29735E-03  7.52664E-01
      -1    -1     0     0     0   512  0.000000000E+00  0.000000000E+00  5.851210931E+02  5.851210931E+02  0.000000000E+00  0.00000E+00  9.000E+00
      21    -1     0     0   515   513  0.000000000E+00  0.000000000E+00 -2.362701542E+03  2.362701542E+03  0.000000000E+00  0.00000E+00  9.000E+00
      -1     1     1     2     0   513  9.374670198E+02  5.378014031E+02 -3.083625982E+02  1.123904913E+03  0.000000000E+00  0.00000E+00  9.000E+00
      21     1     1     2   515   512 -9.374670198E+02 -5.378014031E+02 -1.469217850E+03  1.823917721E+03  2.157918644E-05  0.00000E+00  9.000E+00
#rwgt            1         191   2.1430113891867145E-004        6024     1393582           0
<rwgt>
<wgt id='central'>  0.539242620E+02 </wgt>
<wgt id='sudakovwgt'>  0.208728155E+01 </wgt>
<wgt id='scales0.50.5'>  0.744106794E+02 </wgt>
<wgt id='scales0.51.0'>  0.630778600E+02 </wgt>
<wgt id='scales1.00.5'>  0.636125544E+02 </wgt>
<wgt id='scales1.02.0'>  0.462665743E+02 </wgt>
<wgt id='scales2.01.0'>  0.466457328E+02 </wgt>
<wgt id='scales2.02.0'>  0.400216277E+02 </wgt>
</rwgt>
<scales uborns=' 0.108077507E+04'> </scales>
</event>
<event>
      5  10001  5.46398E+01  2.32392E+02  7.29735E-03  1.09325E-01
      -2    -1     0     0     0   511  0.000000000E+00  0.000000000E+00  1.140369327E+03  1.140369327E+03  0.000000000E+00  0.00000E+00  9.000E+00
       2    -1     0     0   511     0  0.000000000E+00  0.000000000E+00 -1.027957872E+03  1.027957872E+03  0.000000000E+00  0.00000E+00  9.000E+00
       2     1     1     2   513     0  3.377417484E+02 -1.005396344E+03 -1.057086872E+02  1.065863793E+03  1.854154787E-05  0.00000E+00  9.000E+00
      -2     1     1     2     0   513 -3.313887787E+02  9.093800560E+02  1.388447831E+02  9.777875448E+02  4.264961200E-06  0.00000E+00  9.000E+00
      22     1     1     2     0     0 -6.352969656E+00  9.601628851E+01  7.927535943E+01  1.246758617E+02  0.000000000E+00  0.00000E+00  9.000E+00
#rwgt            1          72   1.8307085325444000E-004        6024     1394843           0
<rwgt>
<wgt id='central'>  0.546397824E+02 </wgt>
<wgt id='sudakovwgt'>  0.939031459E-03 </wgt>
<wgt id='scales0.50.5'>  0.691873489E+02 </wgt>
<wgt id='scales0.51.0'>  0.639175912E+02 </wgt>
<wgt id='scales1.00.5'>  0.591446398E+02 </wgt>
<wgt id='scales1.02.0'>  0.506952228E+02 </wgt>
<wgt id='scales2.01.0'>  0.472629067E+02 </wgt>
<wgt id='scales2.02.0'>  0.438508850E+02 </wgt>
</rwgt>
<scales uborns=' 0.107823073E+04'> </scales>
</event>
<event>
      5  10001  1.61469E+00  6.05950E+01  7.29735E-03  1.34475E-01
       2    -1     0     0   513     0  0.000000000E+00  0.000000000E+00  2.067649177E+03  2.067649177E+03  0.000000000E+00  0.00000E+00  9.000E+00
       2    -1     0     0   512     0  0.000000000E+00  0.000000000E+00 -2.410191573E+03  2.410191573E+03  0.000000000E+00  0.00000E+00  9.000E+00
       2     1     1     2   512     0  1.355797064E+03  1.666803946E+03  3.598211728E+02  2.178506908E+03  5.103717102E-05  0.00000E+00  9.000E+00
       2     1     1     2   513     0 -1.308496712E+03 -1.628930102E+03 -5.890606552E+02  2.170845314E+03  4.764555358E-05  0.00000E+00  9.000E+00
      22     1     1     2     0     0 -4.730035212E+01 -3.787384357E+01 -1.133029133E+02  1.284885267E+02  1.348699152E-06  0.00000E+00  9.000E+00
#rwgt            1          97   3.3826706927684684E-003        6024     1396255           0
<rwgt>
<wgt id='central'>  0.161468866E+01 </wgt>
<wgt id='sudakovwgt'>  0.115029026E+00 </wgt>
<wgt id='scales0.50.5'>  0.209928418E+01 </wgt>
<wgt id='scales0.51.0'>  0.186723219E+01 </wgt>
<wgt id='scales1.00.5'>  0.181535708E+01 </wgt>
<wgt id='scales1.02.0'>  0.144682467E+01 </wgt>
<wgt id='scales2.01.0'>  0.141055314E+01 </wgt>
<wgt id='scales2.02.0'>  0.126391015E+01 </wgt>
</rwgt>
<scales uborns=' 0.211878436E+04'> </scales>
</event>
<event>
      5  10001  1.35015E+03  2.39056E+00  7.29735E-03  3.30403E-01
      21    -1     0     0   511   512  0.000000000E+00  0.000000000E+00  1.049647339E+03  1.049647339E+03  0.000000000E+00  0.00000E+00  9.000E+00
       1    -1     0     0   514     0  0.000000000E+00  0.000000000E+00 -1.601157831E+03  1.601157831E+03  0.000000000E+00  0.00000E+00  9.000E+00
       1     1     1     2   511     0 -4.000988281E+02  4.307988345E+02 -1.367972721E+03  1.488964766E+03  2.642899792E-05  0.00000E+00  9.000E+00
      21     1     1     2   514   512  4.191145057E+02 -4.530996614E+02  8.897717852E+02  1.082889700E+03  2.412626389E-05  0.00000E+00  9.000E+00
      22     1     1     2     0     0 -1.901567760E+01  2.230082687E+01 -7.330955608E+01  7.895070542E+01  1.651812370E-06  0.00000E+00  9.000E+00
#rwgt            1         186   4.0197818380070579E-003        6024     1422061           0
<rwgt>
<wgt id='central'>  0.135015244E+04 </wgt>
<wgt id='sudakovwgt'>  0.481579501E-01 </wgt>
<wgt id='scales0.50.5'>  0.185128297E+04 </wgt>
<wgt id='scales0.51.0'>  0.159691261E+04 </wgt>
<wgt id='scales1.00.5'>  0.156521384E+04 </wgt>
<wgt id='scales1.02.0'>  0.117688517E+04 </wgt>
<wgt id='scales2.01.0'>  0.115700869E+04 </wgt>
<wgt id='scales2.02.0'>  0.100852970E+04 </wgt>
</rwgt>
<scales uborns=' 0.617226472E+03'> </scales>
</event>
<event>
      5  10001  1.42240E+03  1.32451E+01  7.29735E-03  1.82630E-01
       2    -1     0     0   515     0  0.000000000E+00  0.000000000E+00  2.255582162E+03  2.255582162E+03  0.000000000E+00  0.00000E+00  9.000E+00
      21    -1     0     0   513   511  0.000000000E+00  0.000000000E+00 -1.746324222E+02  1.746324222E+02  0.000000000E+00  0.00000E+00  9.000E+00
      22     1     1     2     0     0  2.028962295E+02 -3.451858527E+02  5.050256644E+02  6.444928817E+02  1.321449896E-05  0.00000E+00  9.000E+00
      21     1     1     2   515   511 -3.211946074E+02  5.205086959E+02  1.311560602E+03  1.447164984E+03  1.525878906E-05  0.00000E+00  9.000E+00
       2     1     1     2   513     0  1.182983779E+02 -1.753228432E+02  2.643634736E+02  3.385567187E+02  7.629394531E-06  0.00000E+00  9.000E+00
#rwgt            1         182   5.8999076399998233E-003        6024     1423231           0
<rwgt>
<wgt id='central'>  0.142239651E+04 </wgt>
<wgt id='sudakovwgt'>  0.147816354E-02 </wgt>
<wgt id='scales0.50.5'>  0.183776602E+04 </wgt>
<wgt id='scales0.51.0'>  0.168268490E+04 </wgt>
<wgt id='scales1.00.5'>  0.155349251E+04 </wgt>
<wgt id='scales1.02.0'>  0.130726019E+04 </wgt>
<wgt id='scales2.01.0'>  0.121872955E+04 </wgt>
<wgt id='scales2.02.0'>  0.112007636E+04 </wgt>
</rwgt>
<scales uborns=' 0.611762037E+03'> </scales>
</event>
<event>
      5  10001  1.11399E+01  3.87160E+02  7.29735E-03  1.02114E-01
       2    -1     0     0   511     0  0.000000000E+00  0.000000000E+00  2.092250825E+03  2.092250825E+03  0.000000000E+00  0.00000E+00  9.000E+00
       1    -1     0     0   512     0  0.000000000E+00  0.000000000E+00 -1.160825870E+03  1.160825870E+03  0.000000000E+00  0.00000E+00  9.000E+00
       2     1     1     2   512     0  1.171707180E+03 -5.049324267E+02  9.562402162E+02  1.594443421E+03  1.868812365E-05  0.00000E+00  9.000E+00
       1     1     1     2   511     0 -1.225004705E+03  6.275319273E+02 -2.479286872E+02  1.398535477E+03  2.089395742E-05  0.00000E+00  9.000E+00
      22     1     1     2     0     0  5.329752448E+01 -1.225995005E+02  2.231134251E+02  2.600977972E+02  0.000000000E+00  0.00000E+00  9.000E+00
#rwgt            1          92   2.3793153430838546E-003        6024     1427029           0
<rwgt>
<wgt id='central'>  0.111399259E+02 </wgt>
<wgt id='sudakovwgt'>  0.133502040E-02 </wgt>
<wgt id='scales0.50.5'>  0.143467149E+02 </wgt>
<wgt id='scales0.51.0'>  0.129640554E+02 </wgt>
<wgt id='scales1.00.5'>  0.123280073E+02 </wgt>
<wgt id='scales1.02.0'>  0.101297339E+02 </wgt>
<wgt id='scales2.01.0'>  0.967869672E+01 </wgt>
<wgt id='scales2.02.0'>  0.880103252E+01 </wgt>
</rwgt>
<scales uborns=' 0.144256724E+04'> </scales>
</event>
<event>
      5  10001  7.13600E+02  4.36498E+01  7.29735E-03  1.42527E-01
      21    -1     0     0   513   512  0.000000000E+00  0.000000000E+00  2.076004497E+02  2.076004497E+02  0.000000000E+00  0.00000E+00  9.000E+00
       2    -1     0     0   514     0  0.000000000E+00  0.000000000E+00 -2.368148021E+03  2.368148021E+03  0.000000000E+00  0.00000E+00  9.000E+00
       2     1     1     2   513     0 -2.822153175E+02  5.709719762E+02 -1.145786531E+03  1.310908562E+03  1.525878906E-05  0.00000E+00  9.000E+00
      21     1     1     2   514   512  3.066458682E+02 -6.089681872E+02 -8.275031621E+02  1.072210532E+03  0.000000000E+00  0.00000E+00  9.000E+00
      22     1     1     2     0     0 -2.443055072E+01  3.799621096E+01 -1.872578779E+02  1.926293765E+02  3.814697266E-06  0.00000E+00  9.000E+00
#rwgt            1         187   1.2668242560785541E-002        6024     1434189           0
<rwgt>
<wgt id='central'>  0.713599729E+03 </wgt>
<wgt id='sudakovwgt'>  0.100509442E-02 </wgt>
<wgt id='scales0.50.5'>  0.927393168E+03 </wgt>
<wgt id='scales0.51.0'>  0.842100605E+03 </wgt>
<wgt id='scales1.00.5'>  0.785877317E+03 </wgt>
<wgt id='scales1.02.0'>  0.651016604E+03 </wgt>
<wgt id='scales2.01.0'>  0.612695063E+03 </wgt>
<wgt id='scales2.02.0'>  0.558961126E+03 </wgt>
</rwgt>
<scales uborns=' 0.688378333E+03'> </scales>
</event>
<event>
      5  10001  1.57082E+03  2.84075E+01  7.29735E-03  1.54703E-01
       2    -1     0     0   511     0  0.000000000E+00  0.000000000E+00  4.581735676E+02  4.581735676E+02  0.000000000E+00  0.00000E+00  9.000E+00
       2    -1     0     0   512     0  0.000000000E+00  0.000000000E+00 -1.685128821E+03  1.685128821E+03  0.000000000E+00  0.00000E+00  9.000E+00
       2     1     1     2   511     0 -3.329633364E+02 -5.135072392E+02 -1.258692468E+03  1.399593155E+03  2.642899792E-05  0.00000E+00  9.000E+00
       2     1     1     2   512     0  3.055071946E+02  5.062169136E+02 -1.080598980E+02  6.010550317E+02  3.568322551E-06  0.00000E+00  9.000E+00
      22     1     1     2     0     0  2.745614189E+01  7.290325583E+00  1.397971132E+02  1.426542023E+02  1.907348633E-06  0.00000E+00  9.000E+00
#rwgt            1          97   8.6800355648105211E-004        6024     1434911           0
<rwgt>
<wgt id='central'>  0.157082459E+04 </wgt>
<wgt id='sudakovwgt'>  0.118932875E+00 </wgt>
<wgt id='scales0.50.5'>  0.196135668E+04 </wgt>
<wgt id='scales0.51.0'>  0.185893374E+04 </wgt>
<wgt id='scales1.00.5'>  0.165736854E+04 </wgt>
<wgt id='scales1.02.0'>  0.149246199E+04 </wgt>
<wgt id='scales2.01.0'>  0.134548945E+04 </wgt>
<wgt id='scales2.02.0'>  0.127837171E+04 </wgt>
</rwgt>
<scales uborns=' 0.601496054E+03'> </scales>
</event>
<event>
      5  10001  6.90765E+02  7.53197E+01  7.29735E-03  1.29629E-01
      21    -1     0     0   513   514  0.000000000E+00  0.000000000E+00  2.272397516E+02  2.272397516E+02  0.000000000E+00  0.00000E+00  9.000E+00
       2    -1     0     0   511     0  0.000000000E+00  0.000000000E+00 -2.350337722E+03  2.350337722E+03  0.000000000E+00  0.00000E+00  9.000E+00
       2     1     1     2   513     0  6.552983959E+02  1.535329134E+01 -5.527771210E+02  8.574463579E+02  1.525878906E-05  0.00000E+00  9.000E+00
      21     1     1     2   511   514 -6.658788733E+02  1.563393847E+00 -1.418631557E+03  1.567135161E+03  1.525878906E-05  0.00000E+00  9.000E+00
      22     1     1     2     0     0  1.058047744E+01 -1.691668518E+01 -1.516892931E+02  1.529959554E+02  0.000000000E+00  0.00000E+00  9.000E+00
#rwgt            1         187   3.7797570937179227E-003        6024     1460249           0
<rwgt>
<wgt id='central'>  0.690765085E+03 </wgt>
<wgt id='sudakovwgt'>  0.746154404E-01 </wgt>
<wgt id='scales0.50.5'>  0.900195732E+03 </wgt>
<wgt id='scales0.51.0'>  0.815059952E+03 </wgt>
<wgt id='scales1.00.5'>  0.762917750E+03 </wgt>
<wgt id='scales1.02.0'>  0.628567789E+03 </wgt>
<wgt id='scales2.01.0'>  0.593146550E+03 </wgt>
<wgt id='scales2.02.0'>  0.539739008E+03 </wgt>
</rwgt>
<scales uborns=' 0.692231490E+03'> </scales>
</event>
<event>
      5  10001  7.46417E+04  1.25187E+00  7.29735E-03  5.16923E-01
       1    -1     0     0   515     0  0.000000000E+00  0.000000000E+00  1.404655399E+03  1.404655399E+03  0.000000000E+00  0.00000E+00  9.000E+00
      21    -1     0     0   513   515  0.000000000E+00  0.000000000E+00 -1.746127307E+02  1.746127307E+02  0.000000000E+00  0.00000E+00  9.000E+00
       1     1     1     2   512     0 -2.508696920E+01 -3.130281087E+02  7.615914032E+02  8.237945243E+02  1.078959322E-05  0.00000E+00  9.000E+00
      21     1     1     2   513   512  2.564545776E+01  3.119077167E+02  2.711183532E+01  3.141324002E+02  5.499154374E-06  0.00000E+00  9.000E+00
      22     1     1     2     0     0 -5.584885561E-01  1.120392019E+00  4.413394300E+02  4.413412055E+02  7.629394531E-06  0.00000E+00  9.000E+00
#rwgt            1         181   4.2168280791925359E-003        6024     1460990           0
<rwgt>
<wgt id='central'>  0.746416564E+05 </wgt>
<wgt id='sudakovwgt'>  0.298066143E-01 </wgt>
<wgt id='scales0.50.5'>  0.951140676E+05 </wgt>
<wgt id='scales0.51.0'>  0.896841525E+05 </wgt>
<wgt id='scales1.00.5'>  0.791608718E+05 </wgt>
<wgt id='scales1.02.0'>  0.704172414E+05 </wgt>
<wgt id='scales2.01.0'>  0.631286557E+05 </wgt>
<wgt id='scales2.02.0'>  0.595557951E+05 </wgt>
</rwgt>
<scales uborns=' 0.313495572E+03'> </scales>
</event>
<event>
      5  10001  9.44824E+00  1.70240E+02  7.29735E-03  1.14256E-01
      21    -1     0     0   511   514  0.000000000E+00  0.000000000E+00  1.898230214E+03  1.898230214E+03  0.000000000E+00  0.00000E+00  9.000E+00
      -1    -1     0     0     0   511  0.000000000E+00  0.000000000E+00 -1.376445357E+03  1.376445357E+03  0.000000000E+00  0.00000E+00  9.000E+00
      -1     1     1     2     0   512 -1.226395316E+03  6.525049885E+02 -2.070640217E+02  1.404522603E+03  4.366120583E-05  0.00000E+00  9.000E+00
      21     1     1     2   512   514  1.281899772E+03 -6.929506054E+02  8.812774437E+02  1.702967264E+03  4.178791485E-05  0.00000E+00  9.000E+00
      22     1     1     2     0     0 -5.550445594E+01  4.044561697E+01 -1.524285646E+02  1.671857047E+02  3.303624740E-06  0.00000E+00  9.000E+00
#rwgt            1         196   2.1113134546181300E-004        6024     1461835           0
<rwgt>
<wgt id='central'>  0.944823902E+01 </wgt>
<wgt id='sudakovwgt'>  0.404122324E-03 </wgt>
<wgt id='scales0.50.5'>  0.130592364E+02 </wgt>
<wgt id='scales0.51.0'>  0.109895181E+02 </wgt>
<wgt id='scales1.00.5'>  0.112276807E+02 </wgt>
<wgt id='scales1.02.0'>  0.804902294E+01 </wgt>
<wgt id='scales2.01.0'>  0.821268640E+01 </wgt>
<wgt id='scales2.02.0'>  0.699644603E+01 </wgt>
</rwgt>
<scales uborns=' 0.148818800E+04'> </scales>
</event>
<event>
      4  10001  4.62107E+07  8.94427E-01  7.29735E-03  7.39283E-01
      -3    -1     0     0     0   513  0.000000000E+00  0.000000000E+00  6.231695446E+02  6.231695446E+02  0.000000000E+00  0.00000E+00  9.000E+00
      21    -1     0     0   513   511  0.000000000E+00  0.000000000E+00 -3.858492925E+01  3.858492925E+01  0.000000000E+00  0.00000E+00  9.000E+00
      -3     1     1     2     0   514  1.058376732E+02  1.635348903E+01  5.315822900E+02  5.422626492E+02  1.078959322E-05  0.00000E+00  9.000E+00
      21     1     1     2   514   511 -1.058376732E+02 -1.635348903E+01  5.300232538E+01  1.194918247E+02  6.743495762E-07  0.00000E+00  9.000E+00
#rwgt            1         193   6.8947021420438152E-004        6024     1461925           0
<rwgt>
<wgt id='central'>  0.462107039E+08 </wgt>
<wgt id='sudakovwgt'>  0.133853844E+01 </wgt>
<wgt id='scales0.50.5'>  0.546407245E+08 </wgt>
<wgt id='scales0.51.0'>  0.573491503E+08 </wgt>
<wgt id='scales1.00.5'>  0.440283093E+08 </wgt>
<wgt id='scales1.02.0'>  0.476052208E+08 </wgt>
<wgt id='scales2.01.0'>  0.380671656E+08 </wgt>
<wgt id='scales2.02.0'>  0.392159354E+08 </wgt>
</rwgt>
<scales uborns=' 0.107093649E+03'> </scales>
</event>
<event>
      5  10001  1.86715E+03  1.53504E+01  7.29735E-03  1.76444E-01
      21    -1     0     0   512   514  0.000000000E+00  0.000000000E+00  1.229035858E+03  1.229035858E+03  0.000000000E+00  0.00000E+00  9.000E+00
      21    -1     0     0   514   515  0.000000000E+00  0.000000000E+00 -5.134018105E+02  5.134018105E+02  0.000000000E+00  0.00000E+00  9.000E+00
       4     1     1     2   512     0 -4.367267499E+02 -3.868728475E+02  9.473285609E+02  1.112579101E+03  1.078959322E-05  0.00000E+00  9.000E+00
      -4     1     1     2     0   515  4.070180944E+02  3.639185795E+02 -2.026083499E+02  5.823663839E+02  2.472206382E-05  0.00000E+00  9.000E+00
      22     1     1     2     0     0  2.970865553E+01  2.295426805E+01 -2.908616302E+01  4.749218372E+01  1.581489940E-06  0.00000E+00  9.000E+00
#rwgt            1         204   3.5610288566815984E-005        6024     1462347           0
<rwgt>
<wgt id='central'>  0.186714829E+04 </wgt>
<wgt id='sudakovwgt'>  0.539269035E+00 </wgt>
<wgt id='scales0.50.5'>  0.257428331E+04 </wgt>
<wgt id='scales0.51.0'>  0.221100857E+04 </wgt>
<wgt id='scales1.00.5'>  0.217392784E+04 </wgt>
<wgt id='scales1.02.0'>  0.162049931E+04 </wgt>
<wgt id='scales2.01.0'>  0.159846347E+04 </wgt>
<wgt id='scales2.02.0'>  0.138730630E+04 </wgt>
</rwgt>
<scales uborns=' 0.584049399E+03'> </scales>
</event>
<event>
      5  10001  2.25573E+03  2.99856E+01  7.29735E-03  1.53054E-01
       2    -1     0     0   511     0  0.000000000E+00  0.000000000E+00  2.283671991E+03  2.283671991E+03  0.000000000E+00  0.00000E+00  9.000E+00
       2    -1     0     0   512     0  0.000000000E+00  0.000000000E+00 -3.779901713E+02  3.779901713E+02  0.000000000E+00  0.00000E+00  9.000E+00
       2     1     1     2   511     0  5.456220675E+02 -9.921660374E+01 -9.972027037E+01  5.634638474E+02  1.679116903E-05  0.00000E+00  9.000E+00
       2     1     1     2   512     0 -5.708291149E+02  8.297659047E+01  1.788125037E+03  1.878861927E+03  2.157918644E-05  0.00000E+00  9.000E+00
      22     1     1     2     0     0  2.520704744E+01  1.624001326E+01  2.172770524E+02  2.193363872E+02  2.697398305E-06  0.00000E+00  9.000E+00
#rwgt            1          97   1.2860145713787456E-003        6024     1468831           0
<rwgt>
<wgt id='central'>  0.225572889E+04 </wgt>
<wgt id='sudakovwgt'>  0.494534826E-01 </wgt>
<wgt id='scales0.50.5'>  0.286436284E+04 </wgt>
<wgt id='scales0.51.0'>  0.267300536E+04 </wgt>
<wgt id='scales1.00.5'>  0.241721520E+04 </wgt>
<wgt id='scales1.02.0'>  0.211300761E+04 </wgt>
<wgt id='scales2.01.0'>  0.192999891E+04 </wgt>
<wgt id='scales2.02.0'>  0.180788586E+04 </wgt>
</rwgt>
<scales uborns=' 0.565564752E+03'> </scales>
</event>
<event>
      4  10001  1.64820E+01  8.94427E-01  7.29735E-03  7.52566E-01
       3    -1     0     0   514     0  0.000000000E+00  0.000000000E+00  6.212406966E+02  6.212406966E+02  0.000000000E+00  0.00000E+00  9.000E+00
      21    -1     0     0   513   511  0.000000000E+00  0.000000000E+00 -2.959069993E+03  2.959069993E+03  0.000000000E+00  0.00000E+00  9.000E+00
       3     1     1     2   513     0  2.087519500E+02  1.324410375E+03 -1.435132634E+03  1.963987244E+03  4.315837288E-05  0.00000E+00  9.000E+00
      21     1     1     2   514   511 -2.087519500E+02 -1.324410375E+03 -9.026966626E+02  1.616323446E+03  2.412626389E-05  0.00000E+00  9.000E+00
#rwgt            1         183   3.6038370900597124E-005        6024     1495501           0
<rwgt>
<wgt id='central'>  0.164820143E+02 </wgt>
<wgt id='sudakovwgt'>  0.221132543E+01 </wgt>
<wgt id='scales0.50.5'>  0.230187917E+02 </wgt>
<wgt id='scales0.51.0'>  0.192053026E+02 </wgt>
<wgt id='scales1.00.5'>  0.197547382E+02 </wgt>
<wgt id='scales1.02.0'>  0.139575044E+02 </wgt>
<wgt id='scales2.01.0'>  0.143045135E+02 </wgt>
<wgt id='scales2.02.0'>  0.121135366E+02 </wgt>
</rwgt>
<scales uborns=' 0.134076106E+04'> </scales>
</event>
<event>
      5  10001  1.38141E+02  2.95982E+00  7.29735E-03  2.98656E-01
      21    -1     0     0   513   515  0.000000000E+00  0.000000000E+00  4.768488199E+02  4.768488199E+02  0.000000000E+00  0.00000E+00  9.000E+00
       1    -1     0     0   515     0  0.000000000E+00  0.000000000E+00 -2.014171283E+03  2.014171283E+03  0.000000000E+00  0.00000E+00  9.000E+00
      22     1     1     2     0     0  4.679031781E+02  5.667585594E+02 -9.783603659E+02  1.223657491E+03  1.078959322E-05  0.00000E+00  9.000E+00
      21     1     1     2   513   512 -5.842457578E+02 -7.041741554E+02 -3.225131662E+02  9.701644649E+02  1.321449896E-05  0.00000E+00  9.000E+00
       1     1     1     2   512     0  1.163425797E+02  1.374155960E+02 -2.364489312E+02  2.971981476E+02  6.031565972E-06  0.00000E+00  9.000E+00
#rwgt            1         186   3.9829751710415799E-003        6024     1497883           0
<rwgt>
<wgt id='central'>  0.138141361E+03 </wgt>
<wgt id='sudakovwgt'>  0.363960310E-01 </wgt>
<wgt id='scales0.50.5'>  0.183746705E+03 </wgt>
<wgt id='scales0.51.0'>  0.162096859E+03 </wgt>
<wgt id='scales1.00.5'>  0.156591273E+03 </wgt>
<wgt id='scales1.02.0'>  0.122815616E+03 </wgt>
<wgt id='scales2.01.0'>  0.119177198E+03 </wgt>
<wgt id='scales2.02.0'>  0.105955661E+03 </wgt>
</rwgt>
<scales uborns=' 0.914997264E+03'> </scales>
</event>
<event>
      5  10001  5.22819E+03  1.82985E+00  7.29735E-03  3.82106E-01
      21    -1     0     0   511   514  0.000000000E+00  0.000000000E+00  6.890145121E+02  6.890145121E+02  0.000000000E+00  0.00000E+00  9.000E+00
       1    -1     0     0   512     0  0.000000000E+00  0.000000000E+00 -4.146318184E+02  4.146318184E+02  0.000000000E+00  0.00000E+00  9.000E+00
       1     1     1     2   511     0  1.677618775E+02  4.338438652E+02 -7.632514821E+01  4.713704224E+02  1.213829237E-05  0.00000E+00  9.000E+00
      21     1     1     2   512   514 -1.774612264E+02 -4.571730178E+02  3.565759764E+02  6.063382571E+02  5.394796609E-06  0.00000E+00  9.000E+00
      22     1     1     2     0     0  9.699348868E+00  2.332915262E+01 -5.868134540E+00  2.593765089E+01  6.251387883E-07  0.00000E+00  9.000E+00
#rwgt            1         186   1.9062955492826664E-003        6024     1498704           0
<rwgt>
<wgt id='central'>  0.522819162E+04 </wgt>
<wgt id='sudakovwgt'>  0.417991830E-01 </wgt>
<wgt id='scales0.50.5'>  0.675173334E+04 </wgt>
<wgt id='scales0.51.0'>  0.621486222E+04 </wgt>
<wgt id='scales1.00.5'>  0.567982740E+04 </wgt>
<wgt id='scales1.02.0'>  0.483350227E+04 </wgt>
<wgt id='scales2.01.0'>  0.446142560E+04 </wgt>
<wgt id='scales2.02.0'>  0.412462263E+04 </wgt>
</rwgt>
<scales uborns=' 0.490433361E+03'> </scales>
</event>
<event>
      5  10001  1.56688E+03  4.42591E+01  7.29735E-03  1.42166E-01
       2    -1     0     0   515     0  0.000000000E+00  0.000000000E+00  2.117816091E+03  2.117816091E+03  0.000000000E+00  0.00000E+00  9.000E+00
      21    -1     0     0   513   511  0.000000000E+00  0.000000000E+00 -2.691076350E+02  2.691076350E+02  0.000000000E+00  0.00000E+00  9.000E+00
       2     1     1     2   513     0  7.744197761E+01 -4.969841251E+02  1.483801631E+03  1.566734745E+03  2.157918644E-05  0.00000E+00  9.000E+00
      21     1     1     2   515   511 -8.216279902E+01  5.926458529E+02  2.025185530E+02  6.316593993E+02  1.236103191E-05  0.00000E+00  9.000E+00
      22     1     1     2     0     0  4.720821416E+00 -9.566172772E+01  1.623882719E+02  1.885295817E+02  3.814697266E-06  0.00000E+00  9.000E+00
#rwgt            1         182   1.2314523121882139E-002        6024     1499716           0
<rwgt>
<wgt id='central'>  0.156687659E+04 </wgt>
<wgt id='sudakovwgt'>  0.545166853E-03 </wgt>
<wgt id='scales0.50.5'>  0.204784768E+04 </wgt>
<wgt id='scales0.51.0'>  0.185425412E+04 </wgt>
<wgt id='scales1.00.5'>  0.173047024E+04 </wgt>
<wgt id='scales1.02.0'>  0.142620280E+04 </wgt>
<wgt id='scales2.01.0'>  0.134212497E+04 </wgt>
<wgt id='scales2.02.0'>  0.122162667E+04 </wgt>
</rwgt>
<scales uborns=' 0.601754093E+03'> </scales>
</event>
<event>
      5  10001  6.94374E+02  1.78180E+02  7.29735E-03  1.13505E-01
      -1    -1     0     0     0   512  0.000000000E+00  0.000000000E+00  1.137121288E+03  1.137121288E+03  0.000000000E+00  0.00000E+00  9.000E+00
      -3    -1     0     0     0   511  0.000000000E+00  0.000000000E+00 -5.920402151E+02  5.920402151E+02  0.000000000E+00  0.00000E+00  9.000E+00
      -1     1     1     2     0   511 -7.725431196E+02  6.599393340E+01  2.705786636E+01  7.758287175E+02  4.088027048E-06  0.00000E+00  9.000E+00
      -3     1     1     2     0   512  6.180759619E+02  2.282013428E+01  4.387502993E+02  7.583142346E+02  1.705984480E-05  0.00000E+00  9.000E+00
      22     1     1     2     0     0  1.544671577E+02 -8.881406768E+01  7.927290718E+01  1.950185510E+02  1.907348633E-06  0.00000E+00  9.000E+00
#rwgt            1         126   4.7684294632907549E-006        6024     1501396           0
<rwgt>
<wgt id='central'>  0.694373752E+03 </wgt>
<wgt id='sudakovwgt'>  0.269349954E-01 </wgt>
<wgt id='scales0.50.5'>  0.874069977E+03 </wgt>
<wgt id='scales0.51.0'>  0.819333427E+03 </wgt>
<wgt id='scales1.00.5'>  0.740762486E+03 </wgt>
<wgt id='scales1.02.0'>  0.652063977E+03 </wgt>
<wgt id='scales2.01.0'>  0.596236263E+03 </wgt>
<wgt id='scales2.02.0'>  0.559906028E+03 </wgt>
</rwgt>
<scales uborns=' 0.691612626E+03'> </scales>
</event>
<event>
      5  10001  6.08630E+03  3.12585E+00  7.29735E-03  2.91555E-01
       4    -1     0     0   514     0  0.000000000E+00  0.000000000E+00  1.694289822E+02  1.694289822E+02  0.000000000E+00  0.00000E+00  9.000E+00
      21    -1     0     0   513   511  0.000000000E+00  0.000000000E+00 -1.628610577E+03  1.628610577E+03  0.000000000E+00  0.00000E+00  9.000E+00
       4     1     1     2   513     0  4.728129993E+02  2.486218240E+01 -3.541933818E+02  5.912894487E+02  7.629394531E-06  0.00000E+00  9.000E+00
      21     1     1     2   514   511 -4.770893908E+02 -2.215273964E+01 -1.101545441E+03  1.200627915E+03  0.000000000E+00  0.00000E+00  9.000E+00
      22     1     1     2     0     0  4.276391496E+00 -2.709442768E+00 -3.442771861E+00  6.122195883E+00  1.115100797E-07  0.00000E+00  9.000E+00
#rwgt            1         184   1.8001419393324169E-004        6024     1501510           0
<rwgt>
<wgt id='central'>  0.608629535E+04 </wgt>
<wgt id='sudakovwgt'>  0.140044566E+00 </wgt>
<wgt id='scales0.50.5'>  0.776248622E+04 </wgt>
<wgt id='scales0.51.0'>  0.723911744E+04 </wgt>
<wgt id='scales1.00.5'>  0.652632317E+04 </wgt>
<wgt id='scales1.02.0'>  0.567269702E+04 </wgt>
<wgt id='scales2.01.0'>  0.519116060E+04 </wgt>
<wgt id='scales2.02.0'>  0.483838807E+04 </wgt>
</rwgt>
<scales uborns=' 0.477989729E+03'> </scales>
</event>
<event>
      5  10001  9.65074E+03  2.43057E+01  7.29735E-03  1.59672E-01
      21    -1     0     0   512   513  0.000000000E+00  0.000000000E+00  9.955856090E+01  9.955856090E+01  0.000000000E+00  0.00000E+00  9.000E+00
       2    -1     0     0   515     0  0.000000000E+00  0.000000000E+00 -2.552347225E+03  2.552347225E+03  0.000000000E+00  0.00000E+00  9.000E+00
       2     1     1     2   512     0 -4.324094808E+02 -9.744721657E+01 -1.444458680E+03  1.510938383E+03  2.157918644E-05  0.00000E+00  9.000E+00
      21     1     1     2   515   513  4.246978295E+02  1.204971016E+02 -6.737013105E+02  8.054571706E+02  1.525878906E-05  0.00000E+00  9.000E+00
      22     1     1     2     0     0  7.711651312E+00 -2.304988508E+01 -3.346286737E+02  3.355102324E+02  3.814697266E-06  0.00000E+00  9.000E+00
#rwgt            1         187   1.7348956203200726E-002        6024     1502676           0
<rwgt>
<wgt id='central'>  0.965073746E+04 </wgt>
<wgt id='sudakovwgt'>  0.391948075E-01 </wgt>
<wgt id='scales0.50.5'>  0.123160699E+05 </wgt>
<wgt id='scales0.51.0'>  0.114991920E+05 </wgt>
<wgt id='scales1.00.5'>  0.103363079E+05 </wgt>
<wgt id='scales1.02.0'>  0.902229181E+04 </wgt>
<wgt id='scales2.01.0'>  0.821909230E+04 </wgt>
<wgt id='scales2.02.0'>  0.768387182E+04 </wgt>
</rwgt>
<scales uborns=' 0.442190515E+03'> </scales>
</event>
<event>
      5  10001  3.49489E+01  1.38584E+01  7.29735E-03  1.80684E-01
       2    -1     0     0   512     0  0.000000000E+00  0.000000000E+00  2.364493600E+03  2.364493600E+03  0.000000000E+00  0.00000E+00  9.000E+00
       2    -1     0     0   511     0  0.000000000E+00  0.000000000E+00 -5.986348137E+02  5.986348137E+02  0.000000000E+00  0.00000E+00  9.000E+00
       2     1     1     2   511     0  6.965010923E+02 -9.466156950E+02  9.010560918E+02  1.480910911E+03  2.412626389E-05  0.00000E+00  9.000E+00
       2     1     1     2   512     0 -6.907479236E+02  9.340078898E+02  8.831203777E+02  1.459248106E+03  3.578503235E-05  0.00000E+00  9.000E+00
      22     1     1     2     0     0 -5.753168708E+00  1.260780521E+01 -1.831768306E+01  2.296939736E+01  2.384185791E-07  0.00000E+00  9.000E+00
#rwgt            1          97   1.1664386505753175E-003        6024     1503328           0
<rwgt>
<wgt id='central'>  0.349488825E+02 </wgt>
<wgt id='sudakovwgt'>  0.439999123E+00 </wgt>
<wgt id='scales0.50.5'>  0.442553327E+02 </wgt>
<wgt id='scales0.51.0'>  0.408232618E+02 </wgt>
<wgt id='scales1.00.5'>  0.378871048E+02 </wgt>
<wgt id='scales1.02.0'>  0.323940045E+02 </wgt>
<wgt id='scales2.01.0'>  0.302683140E+02 </wgt>
<wgt id='scales2.02.0'>  0.280555869E+02 </wgt>
</rwgt>
<scales uborns=' 0.116844138E+04'> </scales>
</event>
<event>
      5  10001  2.12413E+03  4.68815E+00  7.29735E-03  2.48217E-01
      21    -1     0     0   511   514  0.000000000E+00  0.000000000E+00  9.388884382E+02  9.388884382E+02  0.000000000E+00  0.00000E+00  9.000E+00
       1    -1     0     0   514     0  0.000000000E+00  0.000000000E+00 -7.256911874E+02  7.256911874E+02  0.000000000E+00  0.00000E+00  9.000E+00
       1     1     1     2   513     0  3.448101885E+02  3.539076171E+02 -4.219587153E+02  6.497644381E+02  1.789251617E-05  0.00000E+00  9.000E+00
      21     1     1     2   511   513 -3.991020939E+02 -4.088456092E+02  7.072233842E+02  9.091766212E+02  0.000000000E+00  0.00000E+00  9.000E+00
      22     1     1     2     0     0  5.429190532E+01  5.493799209E+01 -7.206741806E+01  1.056385664E+02  1.348699152E-06  0.00000E+00  9.000E+00
#rwgt            1         186   2.7463235877709146E-003        6024     1551157           0
<rwgt>
<wgt id='central'>  0.212412682E+04 </wgt>
<wgt id='sudakovwgt'>  0.274058215E-01 </wgt>
<wgt id='scales0.50.5'>  0.281202456E+04 </wgt>
<wgt id='scales0.51.0'>  0.251650451E+04 </wgt>
<wgt id='scales1.00.5'>  0.237357244E+04 </wgt>
<wgt id='scales1.02.0'>  0.191460697E+04 </wgt>
<wgt id='scales2.01.0'>  0.181774030E+04 </wgt>
<wgt id='scales2.02.0'>  0.163843938E+04 </wgt>
</rwgt>
<scales uborns=' 0.571375074E+03'> </scales>
</event>
<event>
      5  10001  1.91525E+05  4.62621E+01  7.29735E-03  1.41028E-01
      -1    -1     0     0     0   512  0.000000000E+00  0.000000000E+00  4.032685151E+02  4.032685151E+02  0.000000000E+00  0.00000E+00  9.000E+00
      21    -1     0     0   513   511  0.000000000E+00  0.000000000E+00 -6.498092417E+02  6.498092417E+02  0.000000000E+00  0.00000E+00  9.000E+00
      -1     1     1     2     0   511  1.555974803E+02 -1.637711465E+02  3.180827837E+02  3.901387210E+02  5.394796609E-06  0.00000E+00  9.000E+00
      21     1     1     2   513   512 -2.000025710E+02  1.691147864E+02 -5.596889354E+02  6.179421848E+02  1.321449896E-05  0.00000E+00  9.000E+00
      22     1     1     2     0     0  4.440509072E+01 -5.343639881E+00 -4.934574845E+00  4.499685098E+01  2.980232239E-07  0.00000E+00  9.000E+00
#rwgt            1         191   7.5551961554067828E-004        6024     1551838           0
<rwgt>
<wgt id='central'>  0.191524570E+06 </wgt>
<wgt id='sudakovwgt'>  0.277290336E-01 </wgt>
<wgt id='scales0.50.5'>  0.252651373E+06 </wgt>
<wgt id='scales0.51.0'>  0.231071742E+06 </wgt>
<wgt id='scales1.00.5'>  0.209411389E+06 </wgt>
<wgt id='scales1.02.0'>  0.175928701E+06 </wgt>
<wgt id='scales2.01.0'>  0.161433397E+06 </wgt>
<wgt id='scales2.02.0'>  0.148287523E+06 </wgt>
</rwgt>
<scales uborns=' 0.267710226E+03'> </scales>
</event>
<event>
      5  10001  1.21191E+03  1.54010E+02  7.29735E-03  1.15941E-01
      21    -1     0     0   514   515  0.000000000E+00  0.000000000E+00  7.549592063E+02  7.549592063E+02  0.000000000E+00  0.00000E+00  9.000E+00
       4    -1     0     0   512     0  0.000000000E+00  0.000000000E+00 -7.176621229E+02  7.176621229E+02  0.000000000E+00  0.00000E+00  9.000E+00
       4     1     1     2   514     0  2.382325886E+02 -6.986033964E+01 -2.014269760E+02  3.196999531E+02  3.814697266E-06  0.00000E+00  9.000E+00
      21     1     1     2   512   515 -5.587229564E+02  2.764120909E+02  3.981366428E+02  7.396538193E+02  9.344061824E-06  0.00000E+00  9.000E+00
      22     1     1     2     0     0  3.204903679E+02 -2.065517513E+02 -1.594125833E+02  4.132675569E+02  4.264961200E-06  0.00000E+00  9.000E+00
#rwgt            1         189   2.0517858054683143E-004        6024     1552019           0
<rwgt>
<wgt id='central'>  0.121191295E+04 </wgt>
<wgt id='sudakovwgt'>  0.531702161E-03 </wgt>
<wgt id='scales0.50.5'>  0.151819281E+04 </wgt>
<wgt id='scales0.51.0'>  0.143284832E+04 </wgt>
<wgt id='scales1.00.5'>  0.128409478E+04 </wgt>
<wgt id='scales1.02.0'>  0.114159893E+04 </wgt>
<wgt id='scales2.01.0'>  0.103888528E+04 </wgt>
<wgt id='scales2.02.0'>  0.978612543E+03 </wgt>
</rwgt>
<scales uborns=' 0.628713443E+03'> </scales>
</event>
<event>
      4  10001  5.64222E+02  8.94427E-01  7.29735E-03  7.50049E-01
       1    -1     0     0   514     0  0.000000000E+00  0.000000000E+00  7.857903215E+02  7.857903215E+02  0.000000000E+00  0.00000E+00  9.000E+00
      21    -1     0     0   511   513  0.000000000E+00  0.000000000E+00 -6.837982309E+02  6.837982309E+02  0.000000000E+00  0.00000E+00  9.000E+00
       1     1     1     2   511     0 -6.295071188E+02 -3.426588006E+02  2.050808334E+02  7.454880378E+02  1.452593442E-05  0.00000E+00  9.000E+00
      21     1     1     2   514   513  6.295071188E+02  3.426588006E+02 -1.030887428E+02  7.241005146E+02  8.946258087E-06  0.00000E+00  9.000E+00
#rwgt            1         181   2.1251884302573615E-003        6024     1553604           0
<rwgt>
<wgt id='central'>  0.564221861E+03 </wgt>
<wgt id='sudakovwgt'>  0.228598693E+01 </wgt>
<wgt id='scales0.50.5'>  0.733861658E+03 </wgt>
<wgt id='scales0.51.0'>  0.665273067E+03 </wgt>
<wgt id='scales1.00.5'>  0.622392387E+03 </wgt>
<wgt id='scales1.02.0'>  0.514462890E+03 </wgt>
<wgt id='scales2.01.0'>  0.484778118E+03 </wgt>
<wgt id='scales2.02.0'>  0.442025216E+03 </wgt>
</rwgt>
<scales uborns=' 0.716724680E+03'> </scales>
</event>
<event>
      5  10001  7.58420E+00  6.33777E+01  7.29735E-03  1.33444E-01
       2    -1     0     0   511     0  0.000000000E+00  0.000000000E+00  3.411453374E+03  3.411453374E+03  0.000000000E+00  0.00000E+00  9.000E+00
       3    -1     0     0   512     0  0.000000000E+00  0.000000000E+00 -2.470608818E+03  2.470608818E+03  0.000000000E+00  0.00000E+00  9.000E+00
       2     1     1     2   512     0  1.296233986E+03 -8.400842756E+02  1.401722447E+03  2.085854730E+03  3.051757812E-05  0.00000E+00  9.000E+00
       3     1     1     2   511     0 -1.341520771E+03  7.957464331E+02  1.302255726E+03  2.031935122E+03  2.157918644E-05  0.00000E+00  9.000E+00
      22     1     1     2     0     0  4.528678500E+01  4.433784255E+01 -1.763133617E+03  1.764272339E+03  2.157918644E-05  0.00000E+00  9.000E+00
#rwgt            1         102   1.7393836724980349E-004        6024     1554745           0
<rwgt>
<wgt id='central'>  0.758419708E+01 </wgt>
<wgt id='sudakovwgt'>  0.115700630E+00 </wgt>
<wgt id='scales0.50.5'>  0.986574973E+01 </wgt>
<wgt id='scales0.51.0'>  0.881511537E+01 </wgt>
<wgt id='scales1.00.5'>  0.848812704E+01 </wgt>
<wgt id='scales1.02.0'>  0.681935784E+01 </wgt>
<wgt id='scales2.01.0'>  0.659643927E+01 </wgt>
<wgt id='scales2.02.0'>  0.593120960E+01 </wgt>
</rwgt>
<scales uborns=' 0.155189110E+04'> </scales>
</event>
<event>
      5  10001  1.97247E+01  4.28164E+01  7.29735E-03  1.43031E-01
       2    -1     0     0   512     0  0.000000000E+00  0.000000000E+00  1.570437057E+03  1.570437057E+03  0.000000000E+00  0.00000E+00  9.000E+00
      21    -1     0     0   513   514  0.000000000E+00  0.000000000E+00 -1.327890472E+03  1.327890472E+03  0.000000000E+00  0.00000E+00  9.000E+00
       2     1     1     2   513     0  9.447529804E+02 -9.124043025E+02  6.313994948E+02  1.457293768E+03  4.703074648E-05  0.00000E+00  9.000E+00
      21     1     1     2   512   514 -9.020409466E+02  9.094164185E+02 -4.574773742E+02  1.360147654E+03  3.236877966E-05  0.00000E+00  9.000E+00
      22     1     1     2     0     0 -4.271203377E+01  2.987884005E+00  6.862446368E+01  8.088610693E+01  0.000000000E+00  0.00000E+00  9.000E+00
#rwgt            1         182   4.9145342094801120E-003        6024     1557310           0
<rwgt>
<wgt id='central'>  0.197247255E+02 </wgt>
<wgt id='sudakovwgt'>  0.342134267E-01 </wgt>
<wgt id='scales0.50.5'>  0.262732320E+02 </wgt>
<wgt id='scales0.51.0'>  0.229971987E+02 </wgt>
<wgt id='scales1.00.5'>  0.225345542E+02 </wgt>
<wgt id='scales1.02.0'>  0.174216286E+02 </wgt>
<wgt id='scales2.01.0'>  0.171102715E+02 </wgt>
<wgt id='scales2.02.0'>  0.151124629E+02 </wgt>
</rwgt>
<scales uborns=' 0.129699454E+04'> </scales>
</event>
<event>
      5  10001  8.37627E+04  1.92588E+01  7.29735E-03  1.67733E-01
       1    -1     0     0   511     0  0.000000000E+00  0.000000000E+00  8.023958272E+02  8.023958272E+02  0.000000000E+00  0.00000E+00  9.000E+00
      -1    -1     0     0     0   511  0.000000000E+00  0.000000000E+00 -1.588404921E+02  1.588404921E+02  0.000000000E+00  0.00000E+00  9.000E+00
       1     1     1     2   512     0 -2.040062637E+02 -1.354085161E+02  4.762042653E+02  5.354666414E+02  7.629394531E-06  0.00000E+00  9.000E+00
      -1     1     1     2     0   512  2.484054929E+02  1.795676279E+02  7.734052521E+01  3.161192477E+02  5.135693366E-06  0.00000E+00  9.000E+00
      22     1     1     2     0     0 -4.439922926E+01 -4.415911179E+01  9.001054459E+01  1.096504302E+02  2.132480600E-06  0.00000E+00  9.000E+00
#rwgt            1          41   1.6592149893126102E-004        6024     1559826           0
<rwgt>
<wgt id='central'>  0.837627401E+05 </wgt>
<wgt id='sudakovwgt'>  0.439201240E-01 </wgt>
<wgt id='scales0.50.5'>  0.102986970E+06 </wgt>
<wgt id='scales0.51.0'>  0.100693011E+06 </wgt>
<wgt id='scales1.00.5'>  0.856709575E+05 </wgt>
<wgt id='scales1.02.0'>  0.817553004E+05 </wgt>
<wgt id='scales2.01.0'>  0.708138294E+05 </wgt>
<wgt id='scales2.02.0'>  0.691167536E+05 </wgt>
</rwgt>
<scales uborns=' 0.307493681E+03'> </scales>
</event>
<event>
      5  10001  1.88320E+05  8.54014E+00  7.29735E-03  2.04028E-01
      21    -1     0     0   513   514  0.000000000E+00  0.000000000E+00  7.488453954E+01  7.488453954E+01  0.000000000E+00  0.00000E+00  9.000E+00
       1    -1     0     0   512     0  0.000000000E+00  0.000000000E+00 -1.096932790E+03  1.096932790E+03  0.000000000E+00  0.00000E+00  9.000E+00
       1     1     1     2   513     0  1.243854550E+02 -2.332164571E+02 -6.581520295E+02  7.092430833E+02  7.629394531E-06  0.00000E+00  9.000E+00
      21     1     1     2   512   514 -1.268028807E+02  2.414073071E+02 -3.323829281E+02  4.299242600E+02  1.206313194E-05  0.00000E+00  9.000E+00
      22     1     1     2     0     0  2.417425614E+00 -8.190850040E+00 -3.151329310E+01  3.264998642E+01  3.371747881E-07  0.00000E+00  9.000E+00
#rwgt            1         186   5.3883557625047911E-003        6024     1561048           0
<rwgt>
<wgt id='central'>  0.188319639E+06 </wgt>
<wgt id='sudakovwgt'>  0.221363714E-01 </wgt>
<wgt id='scales0.50.5'>  0.234251824E+06 </wgt>
<wgt id='scales0.51.0'>  0.227187852E+06 </wgt>
<wgt id='scales1.00.5'>  0.194175450E+06 </wgt>
<wgt id='scales1.02.0'>  0.182024778E+06 </wgt>
<wgt id='scales2.01.0'>  0.158741812E+06 </wgt>
<wgt id='scales2.02.0'>  0.153435340E+06 </wgt>
</rwgt>
<scales uborns=' 0.268467630E+03'> </scales>
</event>
<event>
      5  10001  1.72878E+01  6.88954E+01  7.29735E-03  1.31571E-01
       2    -1     0     0   513     0  0.000000000E+00  0.000000000E+00  1.346336209E+03  1.346336209E+03  0.000000000E+00  0.00000E+00  9.000E+00
       2    -1     0     0   511     0  0.000000000E+00  0.000000000E+00 -1.690816509E+03  1.690816509E+03  0.000000000E+00  0.00000E+00  9.000E+00
       2     1     1     2   511     0  6.150475088E+02 -1.143662895E+03  3.612321486E+02  1.347863836E+03  2.854658040E-05  0.00000E+00  9.000E+00
       2     1     1     2   513     0 -6.718736832E+02  1.182616230E+03 -7.958229668E+02  1.575858366E+03  4.178791485E-05  0.00000E+00  9.000E+00
      22     1     1     2     0     0  5.682617437E+01 -3.895333563E+01  9.011051846E+01  1.134305161E+02  1.348699152E-06  0.00000E+00  9.000E+00
#rwgt            1          97   2.5057260469337323E-003        6024     1561569           0
<rwgt>
<wgt id='central'>  0.172877975E+02 </wgt>
<wgt id='sudakovwgt'>  0.740202934E-01 </wgt>
<wgt id='scales0.50.5'>  0.219317225E+02 </wgt>
<wgt id='scales0.51.0'>  0.201473651E+02 </wgt>
<wgt id='scales1.00.5'>  0.188188991E+02 </wgt>
<wgt id='scales1.02.0'>  0.159606276E+02 </wgt>
<wgt id='scales2.01.0'>  0.150018679E+02 </wgt>
<wgt id='scales2.02.0'>  0.138501849E+02 </wgt>
</rwgt>
<scales uborns=' 0.132895947E+04'> </scales>
</event>
<event>
      5  10001  1.85042E+02  3.12082E+02  7.29735E-03  1.05038E-01
       2    -1     0     0   512     0  0.000000000E+00  0.000000000E+00  9.606104019E+02  9.606104019E+02  0.000000000E+00  0.00000E+00  9.000E+00
      -2    -1     0     0     0   512  0.000000000E+00  0.000000000E+00 -1.001782353E+03  1.001782353E+03  0.000000000E+00  0.00000E+00  9.000E+00
       2     1     1     2   513     0  8.641914004E+02  1.027871003E+01  4.313782353E+02  9.659294023E+02  5.394796609E-06  0.00000E+00  9.000E+00
      22     1     1     2     0     0 -1.780433198E+02 -3.775701302E+01 -4.479648953E+01  1.874346319E+02  3.471426911E-06  0.00000E+00  9.000E+00
      -2     1     1     2     0   513 -6.861480806E+02  2.747830299E+01 -4.277536969E+02  8.090287206E+02  0.000000000E+00  0.00000E+00  9.000E+00
#rwgt            1          47   2.4933094104002593E-004        6024     1580984           0
<rwgt>
<wgt id='central'>  0.185041989E+03 </wgt>
<wgt id='sudakovwgt'>  0.151051120E-01 </wgt>
<wgt id='scales0.50.5'>  0.233679691E+03 </wgt>
<wgt id='scales0.51.0'>  0.217345732E+03 </wgt>
<wgt id='scales1.00.5'>  0.198948270E+03 </wgt>
<wgt id='scales1.02.0'>  0.172774527E+03 </wgt>
<wgt id='scales2.01.0'>  0.159505928E+03 </wgt>
<wgt id='scales2.02.0'>  0.148931384E+03 </wgt>
</rwgt>
<scales uborns=' 0.869380128E+03'> </scales>
</event>
<event>
      5  10001  1.98807E+05  1.13508E+02  7.29735E-03  1.21402E-01
       3    -1     0     0   513     0  0.000000000E+00  0.000000000E+00  1.101914534E+03  1.101914534E+03  0.000000000E+00  0.00000E+00  9.000E+00
      21    -1     0     0   511   512  0.000000000E+00  0.000000000E+00 -7.515708083E+01  7.515708083E+01  0.000000000E+00  0.00000E+00  9.000E+00
       3     1     1     2   511     0  5.358443684E+01  2.153909396E+02  5.599211123E+02  6.023090575E+02  1.321449896E-05  0.00000E+00  9.000E+00
      21     1     1     2   513   512 -1.324401366E+02 -1.975286227E+02  2.583378969E+02  3.511358933E+02  6.607249480E-06  0.00000E+00  9.000E+00
      22     1     1     2     0     0  7.885569975E+01 -1.786231688E+01  2.084984441E+02  2.236266642E+02  2.697398305E-06  0.00000E+00  9.000E+00
#rwgt            1         183   5.8158254339811641E-004        6024     1602259           0
<rwgt>
<wgt id='central'>  0.198806833E+06 </wgt>
<wgt id='sudakovwgt'>  0.411648409E-03 </wgt>
<wgt id='scales0.50.5'>  0.247133632E+06 </wgt>
<wgt id='scales0.51.0'>  0.239897354E+06 </wgt>
<wgt id='scales1.00.5'>  0.204803826E+06 </wgt>
<wgt id='scales1.02.0'>  0.192174899E+06 </wgt>
<wgt id='scales2.01.0'>  0.167548240E+06 </wgt>
<wgt id='scales2.02.0'>  0.161958915E+06 </wgt>
</rwgt>
<scales uborns=' 0.266042979E+03'> </scales>
</event>
<event>
      5  10001  1.21876E+03  1.80255E+02  7.29735E-03  1.13316E-01
       1    -1     0     0   511     0  0.000000000E+00  0.000000000E+00  1.689978033E+03  1.689978033E+03  0.000000000E+00  0.00000E+00  9.000E+00
      21    -1     0     0   514   515  0.000000000E+00  0.000000000E+00 -3.515604867E+02  3.515604867E+02  0.000000000E+00  0.00000E+00  9.000E+00
       1     1     1     2   514     0 -2.168542535E+02 -5.258307344E+02  3.387979235E+02  6.620481564E+02  1.477425898E-05  0.00000E+00  9.000E+00
      21     1     1     2   511   515  1.359883283E+02  6.869289275E+02  5.353484050E+02  8.814545318E+02  7.629394531E-06  0.00000E+00  9.000E+00
      22     1     1     2     0     0  8.086592525E+01 -1.610981931E+02  4.642712175E+02  4.980358311E+02  5.394796609E-06  0.00000E+00  9.000E+00
#rwgt            1         181   2.3434264706921970E-003        6024     1602325           0
<rwgt>
<wgt id='central'>  0.121875949E+04 </wgt>
<wgt id='sudakovwgt'>  0.208838736E-01 </wgt>
<wgt id='scales0.50.5'>  0.157579032E+04 </wgt>
<wgt id='scales0.51.0'>  0.144097635E+04 </wgt>
<wgt id='scales1.00.5'>  0.133278399E+04 </wgt>
<wgt id='scales1.02.0'>  0.111951950E+04 </wgt>
<wgt id='scales2.01.0'>  0.104473944E+04 </wgt>
<wgt id='scales2.02.0'>  0.959668988E+03 </wgt>
</rwgt>
<scales uborns=' 0.628108858E+03'> </scales>
</event>
<event>
      5  10001  1.21239E+04  9.31636E+01  7.29735E-03  1.25227E-01
      -2    -1     0     0     0   512  0.000000000E+00  0.000000000E+00  1.102992968E+02  1.102992968E+02  0.000000000E+00  0.00000E+00  9.000E+00
      21    -1     0     0   513   511  0.000000000E+00  0.000000000E+00 -2.180767894E+03  2.180767894E+03  0.000000000E+00  0.00000E+00  9.000E+00
      22     1     1     2     0     0 -3.915858904E+01 -1.887287192E+02 -1.905405919E+02  2.710307025E+02  3.814697266E-06  0.00000E+00  9.000E+00
      21     1     1     2   513   512  1.702060160E+02  3.863042803E+02 -1.592216495E+03  1.647226291E+03  2.157918644E-05  0.00000E+00  9.000E+00
      -2     1     1     2     0   511 -1.310474270E+02 -1.975755611E+02 -2.877115098E+02  3.728101974E+02  8.529922400E-06  0.00000E+00  9.000E+00
#rwgt            1         192   2.3374971034521752E-004        6024     1602407           0
<rwgt>
<wgt id='central'>  0.121239020E+05 </wgt>
<wgt id='sudakovwgt'>  0.695092444E-03 </wgt>
<wgt id='scales0.50.5'>  0.163098935E+05 </wgt>
<wgt id='scales0.51.0'>  0.144589863E+05 </wgt>
<wgt id='scales1.00.5'>  0.136758907E+05 </wgt>
<wgt id='scales1.02.0'>  0.108288385E+05 </wgt>
<wgt id='scales2.01.0'>  0.103176503E+05 </wgt>
<wgt id='scales2.02.0'>  0.921553037E+04 </wgt>
</rwgt>
<scales uborns=' 0.425501925E+03'> </scales>
</event>
<event>
      5  10001  1.59955E+00  2.32067E+02  7.29735E-03  1.09346E-01
       2    -1     0     0   514     0  0.000000000E+00  0.000000000E+00  1.213194046E+03  1.213194046E+03  0.000000000E+00  0.00000E+00  9.000E+00
       2    -1     0     0   512     0  0.000000000E+00  0.000000000E+00 -4.270061670E+03  4.270061670E+03  0.000000000E+00  0.00000E+00  9.000E+00
       2     1     1     2   514     0  9.257344518E+02  1.871417953E+03 -2.474956201E+03  3.237992839E+03  5.285799584E-05  0.00000E+00  9.000E+00
      22     1     1     2     0     0 -7.923996815E+02 -1.752442697E+03 -6.818012321E+02  2.040540512E+03  4.037096117E-05  0.00000E+00  9.000E+00
       2     1     1     2   512     0 -1.333347702E+02 -1.189752564E+02  9.988980868E+01  2.047223644E+02  4.672030912E-06  0.00000E+00  9.000E+00
#rwgt            1          97   2.5096516942615292E-003        6024     1602639           0
<rwgt>
<wgt id='central'>  0.159955116E+01 </wgt>
<wgt id='sudakovwgt'>  0.209017585E-02 </wgt>
<wgt id='scales0.50.5'>  0.213427892E+01 </wgt>
<wgt id='scales0.51.0'>  0.184966559E+01 </wgt>
<wgt id='scales1.00.5'>  0.184567733E+01 </wgt>
<wgt id='scales1.02.0'>  0.139913957E+01 </wgt>
<wgt id='scales2.01.0'>  0.139736544E+01 </wgt>
<wgt id='scales2.02.0'>  0.122228707E+01 </wgt>
</rwgt>
<scales uborns=' 0.212304995E+04'> </scales>
</event>
<event>
      5  10001  5.86324E+04  2.68173E+01  7.29735E-03  1.56501E-01
       1    -1     0     0   511     0  0.000000000E+00  0.000000000E+00  5.405517880E+02  5.405517880E+02  0.000000000E+00  0.00000E+00  9.000E+00
      -4    -1     0     0     0   511  0.000000000E+00  0.000000000E+00 -1.062242781E+03  1.062242781E+03  0.000000000E+00  0.00000E+00  9.000E+00
       1     1     1     2   512     0 -2.312340857E+02 -2.311634526E+02  4.558614328E+02  5.609950001E+02  1.078959322E-05  0.00000E+00  9.000E+00
      -4     1     1     2     0   512  2.111916980E+02  2.489811467E+02 -8.314047160E+02  8.932118150E+02  1.078959322E-05  0.00000E+00  9.000E+00
      22     1     1     2     0     0  2.004238771E+01 -1.781769412E+01 -1.461477096E+02  1.485877537E+02  3.303624740E-06  0.00000E+00  9.000E+00
#rwgt            1         143   2.4910171280396493E-005        6024     1612988           0
<rwgt>
<wgt id='central'>  0.586323877E+05 </wgt>
<wgt id='sudakovwgt'>  0.310625177E-01 </wgt>
<wgt id='scales0.50.5'>  0.706282069E+05 </wgt>
<wgt id='scales0.51.0'>  0.703762974E+05 </wgt>
<wgt id='scales1.00.5'>  0.588422726E+05 </wgt>
<wgt id='scales1.02.0'>  0.579170120E+05 </wgt>
<wgt id='scales2.01.0'>  0.496308677E+05 </wgt>
<wgt id='scales2.02.0'>  0.490253095E+05 </wgt>
</rwgt>
<scales uborns=' 0.326450364E+03'> </scales>
</event>
<event>
      4  10001  3.10501E+04  8.94427E-01  7.29735E-03  7.51274E-01
      21    -1     0     0   513   514  0.000000000E+00  0.000000000E+00  3.200375097E+02  3.200375097E+02  0.000000000E+00  0.00000E+00  9.000E+00
       1    -1     0     0   512     0  0.000000000E+00  0.000000000E+00 -6.434059925E+02  6.434059925E+02  0.000000000E+00  0.00000E+00  9.000E+00
       1     1     1     2   513     0 -3.364466839E+02  1.368697959E+02 -4.504350205E+02  5.786375548E+02  5.394796609E-06  0.00000E+00  9.000E+00
      21     1     1     2   512   514  3.364466839E+02 -1.368697959E+02  1.270665376E+02  3.848059474E+02  7.008046368E-06  0.00000E+00  9.000E+00
#rwgt            1         186   3.8313802652009741E-003        6024     1614883           0
<rwgt>
<wgt id='central'>  0.310500613E+05 </wgt>
<wgt id='sudakovwgt'>  0.232710587E+01 </wgt>
<wgt id='scales0.50.5'>  0.397798828E+05 </wgt>
<wgt id='scales0.51.0'>  0.371707897E+05 </wgt>
<wgt id='scales1.00.5'>  0.332295695E+05 </wgt>
<wgt id='scales1.02.0'>  0.290807692E+05 </wgt>
<wgt id='scales2.01.0'>  0.263409931E+05 </wgt>
<wgt id='scales2.02.0'>  0.246703341E+05 </wgt>
</rwgt>
<scales uborns=' 0.363221299E+03'> </scales>
</event>
<event>
      5  10001  2.80067E+01  1.29529E+01  7.29735E-03  1.83605E-01
      21    -1     0     0   511   515  0.000000000E+00  0.000000000E+00  9.888815151E+02  9.888815151E+02  0.000000000E+00  0.00000E+00  9.000E+00
       2    -1     0     0   513     0  0.000000000E+00  0.000000000E+00 -1.827946172E+03  1.827946172E+03  0.000000000E+00  0.00000E+00  9.000E+00
       2     1     1     2   511     0 -8.822983442E+02  8.297311557E+02 -3.201471913E+02  1.252756314E+03  2.615224686E-05  0.00000E+00  9.000E+00
      21     1     1     2   513   515  8.845827496E+02 -8.424810165E+02 -1.916214875E+02  1.236519186E+03  2.207915669E-05  0.00000E+00  9.000E+00
      22     1     1     2     0     0 -2.284405405E+00  1.274986080E+01 -3.272959785E+02  3.275521866E+02  3.814697266E-06  0.00000E+00  9.000E+00
#rwgt            1         187   4.7044523198373871E-003        6024     1616483           0
<rwgt>
<wgt id='central'>  0.280067406E+02 </wgt>
<wgt id='sudakovwgt'>  0.116573955E+00 </wgt>
<wgt id='scales0.50.5'>  0.369018444E+02 </wgt>
<wgt id='scales0.51.0'>  0.326905359E+02 </wgt>
<wgt id='scales1.00.5'>  0.316146205E+02 </wgt>
<wgt id='scales1.02.0'>  0.250074774E+02 </wgt>
<wgt id='scales2.01.0'>  0.242708428E+02 </wgt>
<wgt id='scales2.02.0'>  0.216716912E+02 </wgt>
</rwgt>
<scales uborns=' 0.121635254E+04'> </scales>
</event>
<event>
      5  10001  9.74964E+07  2.05885E+00  7.29735E-03  3.57295E-01
      -2    -1     0     0     0   512  0.000000000E+00  0.000000000E+00  1.440152566E+03  1.440152566E+03  0.000000000E+00  0.00000E+00  9.000E+00
      21    -1     0     0   511   514  0.000000000E+00  0.000000000E+00 -1.604438913E+01  1.604438913E+01  0.000000000E+00  0.00000E+00  9.000E+00
      -2     1     1     2     0   514 -8.971844817E+01 -2.643997148E+01  1.174981682E+03  1.178698615E+03  1.525878906E-05  0.00000E+00  9.000E+00
      21     1     1     2   511   512  9.173931222E+01  2.683361688E+01  1.469494640E+02  1.753005686E+02  5.722045898E-06  0.00000E+00  9.000E+00
      22     1     1     2     0     0 -2.020864051E+00 -3.936454047E-01  1.021770306E+02  1.021977711E+02  1.907348633E-06  0.00000E+00  9.000E+00
#rwgt            1         192   9.6957790353514167E-004        6024     1617976           0
<rwgt>
<wgt id='central'>  0.974963702E+08 </wgt>
<wgt id='sudakovwgt'>  0.567666043E-01 </wgt>
<wgt id='scales0.50.5'>  0.118847293E+09 </wgt>
<wgt id='scales0.51.0'>  0.121546437E+09 </wgt>
<wgt id='scales1.00.5'>  0.953313283E+08 </wgt>
<wgt id='scales1.02.0'>  0.982016594E+08 </wgt>
<wgt id='scales2.01.0'>  0.800249884E+08 </wgt>
<wgt id='scales2.02.0'>  0.806038649E+08 </wgt>
</rwgt>
<scales uborns=' 0.945558600E+02'> </scales>
</event>
<event>
      5  10001  1.10095E+03  1.17469E+02  7.29735E-03  1.20762E-01
      21    -1     0     0   515   511  0.000000000E+00  0.000000000E+00  1.529638049E+03  1.529638049E+03  0.000000000E+00  0.00000E+00  9.000E+00
       2    -1     0     0   511     0  0.000000000E+00  0.000000000E+00 -1.611380032E+03  1.611380032E+03  0.000000000E+00  0.00000E+00  9.000E+00
       2     1     1     2   513     0  1.117458986E+02  6.271724285E+02 -1.153246580E+03  1.317501452E+03  2.157918644E-05  0.00000E+00  9.000E+00
      21     1     1     2   515   513 -2.271632294E+02 -6.053151527E+02  1.363367932E+03  1.508900820E+03  0.000000000E+00  0.00000E+00  9.000E+00
      22     1     1     2     0     0  1.154173309E+02 -2.185727575E+01 -2.918633353E+02  3.146158090E+02  0.000000000E+00  0.00000E+00  9.000E+00
#rwgt            1         187   5.9845948857739327E-003        6024     1619916           0
<rwgt>
<wgt id='central'>  0.110094522E+04 </wgt>
<wgt id='sudakovwgt'>  0.256905662E-01 </wgt>
<wgt id='scales0.50.5'>  0.150496870E+04 </wgt>
<wgt id='scales0.51.0'>  0.130121032E+04 </wgt>
<wgt id='scales1.00.5'>  0.127334932E+04 </wgt>
<wgt id='scales1.02.0'>  0.962050981E+03 </wgt>
<wgt id='scales2.01.0'>  0.944041753E+03 </wgt>
<wgt id='scales2.02.0'>  0.824938730E+03 </wgt>
</rwgt>
<scales uborns=' 0.639113912E+03'> </scales>
</event>
<event>
      4  10001  6.61049E+02  8.94427E-01  7.29735E-03  7.51803E-01
      21    -1     0     0   512   511  0.000000000E+00  0.000000000E+00  2.725675351E+02  2.725675351E+02  0.000000000E+00  0.00000E+00  9.000E+00
       1    -1     0     0   513     0  0.000000000E+00  0.000000000E+00 -1.883824708E+03  1.883824708E+03  0.000000000E+00  0.00000E+00  9.000E+00
       1     1     1     2   512     0  6.554173674E+02 -2.385434163E+02 -1.052845777E+03  1.262916908E+03  1.525878906E-05  0.00000E+00  9.000E+00
      21     1     1     2   513   511 -6.554173674E+02  2.385434163E+02 -5.584113959E+02  8.934753349E+02  2.288818359E-05  0.00000E+00  9.000E+00
#rwgt            1         186   4.1927737617937630E-003        6024     1620314           0
<rwgt>
<wgt id='central'>  0.661048741E+03 </wgt>
<wgt id='sudakovwgt'>  0.426373768E+01 </wgt>
<wgt id='scales0.50.5'>  0.866195467E+03 </wgt>
<wgt id='scales0.51.0'>  0.779875884E+03 </wgt>
<wgt id='scales1.00.5'>  0.734216379E+03 </wgt>
<wgt id='scales1.02.0'>  0.598486295E+03 </wgt>
<wgt id='scales2.01.0'>  0.567704392E+03 </wgt>
<wgt id='scales2.02.0'>  0.513975966E+03 </wgt>
</rwgt>
<scales uborns=' 0.697477517E+03'> </scales>
</event>
<event>
      5  10001  2.55318E+05  2.88354E+02  7.29735E-03  1.06154E-01
       2    -1     0     0   514     0  0.000000000E+00  0.000000000E+00  5.188788702E+02  5.188788702E+02  0.000000000E+00  0.00000E+00  9.000E+00
       2    -1     0     0   511     0  0.000000000E+00  0.000000000E+00 -4.498640471E+02  4.498640471E+02  0.000000000E+00  0.00000E+00  9.000E+00
       2     1     1     2   514     0 -1.135924041E+02 -1.761272161E+02 -3.095418305E+02  3.738183721E+02  6.607249480E-06  0.00000E+00  9.000E+00
       2     1     1     2   511     0  1.357939807E+02  2.975594178E+02  2.208949228E+02  3.946849113E+02  8.946258087E-06  0.00000E+00  9.000E+00
      22     1     1     2     0     0 -2.220157663E+01 -1.214322017E+02  1.576617309E+02  2.002396339E+02  1.907348633E-06  0.00000E+00  9.000E+00
#rwgt            1          97   4.8596193452910870E-004        6024     1622227           0
<rwgt>
<wgt id='central'>  0.255318262E+06 </wgt>
<wgt id='sudakovwgt'>  0.432830464E-03 </wgt>
<wgt id='scales0.50.5'>  0.314406311E+06 </wgt>
<wgt id='scales0.51.0'>  0.308435292E+06 </wgt>
<wgt id='scales1.00.5'>  0.260260719E+06 </wgt>
<wgt id='scales1.02.0'>  0.250222395E+06 </wgt>
<wgt id='scales2.01.0'>  0.214974432E+06 </wgt>
<wgt id='scales2.02.0'>  0.210683999E+06 </wgt>
</rwgt>
<scales uborns=' 0.255132938E+03'> </scales>
</event>
<event>
      5  10001  7.04577E+03  1.05977E+02  7.29735E-03  1.22704E-01
      -2    -1     0     0     0   511  0.000000000E+00  0.000000000E+00  1.623479116E+03  1.623479116E+03  0.000000000E+00  0.00000E+00  9.000E+00
       3    -1     0     0   511     0  0.000000000E+00  0.000000000E+00 -2.438159532E+02  2.438159532E+02  0.000000000E+00  0.00000E+00  9.000E+00
       3     1     1     2   512     0 -4.344525092E+02 -1.654919310E+02  6.287261314E+01  4.691370028E+02  9.122431979E-06  0.00000E+00  9.000E+00
      22     1     1     2     0     0  1.451194118E+02  6.316492579E+01  3.573732438E+02  3.908517455E+02  3.814697266E-06  0.00000E+00  9.000E+00
      -2     1     1     2     0   512  2.893330973E+02  1.023270052E+02  9.594173059E+02  1.007306321E+03  1.868812365E-05  0.00000E+00  9.000E+00
#rwgt            1         166   1.6555019889397251E-005        6024     1623992           0
<rwgt>
<wgt id='central'>  0.704576929E+04 </wgt>
<wgt id='sudakovwgt'>  0.664695361E-01 </wgt>
<wgt id='scales0.50.5'>  0.891447022E+04 </wgt>
<wgt id='scales0.51.0'>  0.838503852E+04 </wgt>
<wgt id='scales1.00.5'>  0.749064023E+04 </wgt>
<wgt id='scales1.02.0'>  0.663409538E+04 </wgt>
<wgt id='scales2.01.0'>  0.600668752E+04 </wgt>
<wgt id='scales2.02.0'>  0.565572506E+04 </wgt>
</rwgt>
<scales uborns=' 0.466310336E+03'> </scales>
</event>
<event>
      4  10001  4.02754E+02  8.94427E-01  7.29735E-03  7.50306E-01
      21    -1     0     0   512   511  0.000000000E+00  0.000000000E+00  9.616696895E+02  9.616696895E+02  0.000000000E+00  0.00000E+00  9.000E+00
       1    -1     0     0   511     0  0.000000000E+00  0.000000000E+00 -8.113618245E+02  8.113618245E+02  0.000000000E+00  0.00000E+00  9.000E+00
       1     1     1     2   513     0 -5.208339619E+02 -5.529228614E+02 -3.773300876E+02  8.481566492E+02  1.206313194E-05  0.00000E+00  9.000E+00
      21     1     1     2   512   513  5.208339619E+02  5.529228614E+02  5.276379526E+02  9.248748648E+02  7.629394531E-06  0.00000E+00  9.000E+00
#rwgt            1         186   2.6728384359846736E-003        6024     1628450           0
<rwgt>
<wgt id='central'>  0.402753935E+03 </wgt>
<wgt id='sudakovwgt'>  0.154612041E+01 </wgt>
<wgt id='scales0.50.5'>  0.530878245E+03 </wgt>
<wgt id='scales0.51.0'>  0.474328278E+03 </wgt>
<wgt id='scales1.00.5'>  0.450770799E+03 </wgt>
<wgt id='scales1.02.0'>  0.362477765E+03 </wgt>
<wgt id='scales2.01.0'>  0.346389563E+03 </wgt>
<wgt id='scales2.02.0'>  0.311749888E+03 </wgt>
</rwgt>
<scales uborns=' 0.759599702E+03'> </scales>
</event>
<event>
      5  10001  2.60721E+01  3.54270E+00  7.29735E-03  2.76546E-01
      21    -1     0     0   514   511  0.000000000E+00  0.000000000E+00  3.532683914E+02  3.532683914E+02  0.000000000E+00  0.00000E+00  9.000E+00
       2    -1     0     0   513     0  0.000000000E+00  0.000000000E+00 -4.424607305E+03  4.424607305E+03  0.000000000E+00  0.00000E+00  9.000E+00
       2     1     1     2   514     0 -6.288924614E+02 -1.060542852E+03 -2.392900965E+03  2.691882594E+03  0.000000000E+00  0.00000E+00  9.000E+00
      21     1     1     2   513   511  6.253911206E+02  1.061082584E+03 -1.658952423E+03  2.066188144E+03  5.709316081E-05  0.00000E+00  9.000E+00
      22     1     1     2     0     0  3.501340877E+00 -5.397318223E-01 -1.948552550E+01  1.980495904E+01  2.384185791E-07  0.00000E+00  9.000E+00
#rwgt            1         187   1.3510671209539318E-002        6024     1630131           0
<rwgt>
<wgt id='central'>  0.260720884E+02 </wgt>
<wgt id='sudakovwgt'>  0.177384236E+00 </wgt>
<wgt id='scales0.50.5'>  0.357797967E+02 </wgt>
<wgt id='scales0.51.0'>  0.304252935E+02 </wgt>
<wgt id='scales1.00.5'>  0.306604910E+02 </wgt>
<wgt id='scales1.02.0'>  0.224029403E+02 </wgt>
<wgt id='scales2.01.0'>  0.225988066E+02 </wgt>
<wgt id='scales2.02.0'>  0.194184479E+02 </wgt>
</rwgt>
<scales uborns=' 0.123232708E+04'> </scales>
</event>
<event>
      5  10001  7.07849E+02  7.10460E+00  7.29735E-03  2.14647E-01
       1    -1     0     0   515     0  0.000000000E+00  0.000000000E+00  2.318541659E+03  2.318541659E+03  0.000000000E+00  0.00000E+00  9.000E+00
      21    -1     0     0   512   514  0.000000000E+00  0.000000000E+00 -3.373444761E+02  3.373444761E+02  0.000000000E+00  0.00000E+00  9.000E+00
       1     1     1     2   512     0 -4.998594065E+02 -2.846391458E+02  1.536051062E+03  1.640223074E+03  3.737624730E-05  0.00000E+00  9.000E+00
      21     1     1     2   515   514  6.004811580E+02  3.384151103E+02  1.586692796E+02  7.073035757E+02  3.814697266E-06  0.00000E+00  9.000E+00
      22     1     1     2     0     0 -1.006217515E+02 -5.377596443E+01  2.864768419E+02  3.083594853E+02  6.607249480E-06  0.00000E+00  9.000E+00
#rwgt            1         181   4.1360949251607743E-003        6024     1633228           0
<rwgt>
<wgt id='central'>  0.707849242E+03 </wgt>
<wgt id='sudakovwgt'>  0.447848725E-01 </wgt>
<wgt id='scales0.50.5'>  0.948188483E+03 </wgt>
<wgt id='scales0.51.0'>  0.835290111E+03 </wgt>
<wgt id='scales1.00.5'>  0.803522346E+03 </wgt>
<wgt id='scales1.02.0'>  0.628355118E+03 </wgt>
<wgt id='scales2.01.0'>  0.607771948E+03 </wgt>
<wgt id='scales2.02.0'>  0.539517064E+03 </wgt>
</rwgt>
<scales uborns=' 0.689334814E+03'> </scales>
</event>
<event>
      5  10001  9.00376E+00  8.74369E+01  7.29735E-03  1.26508E-01
      21    -1     0     0   512   513  0.000000000E+00  0.000000000E+00  9.398284291E+02  9.398284291E+02  0.000000000E+00  0.00000E+00  9.000E+00
       2    -1     0     0   513     0  0.000000000E+00  0.000000000E+00 -4.416851633E+03  4.416851633E+03  0.000000000E+00  0.00000E+00  9.000E+00
       2     1     1     2   511     0 -9.116593916E+02 -9.978742374E+02 -3.380137563E+03  3.640357919E+03  6.103515625E-05  0.00000E+00  9.000E+00
      21     1     1     2   512   511  1.031041653E+03  1.079814184E+03  7.091776548E+01  1.494682204E+03  2.138868474E-05  0.00000E+00  9.000E+00
      22     1     1     2     0     0 -1.193822611E+02 -8.193994639E+01 -1.678034068E+02  2.216399387E+02  1.907348633E-06  0.00000E+00  9.000E+00
#rwgt            1         187   9.5379163337970529E-003        6024     1633791           0
<rwgt>
<wgt id='central'>  0.900376000E+01 </wgt>
<wgt id='sudakovwgt'>  0.666838612E-01 </wgt>
<wgt id='scales0.50.5'>  0.126674446E+02 </wgt>
<wgt id='scales0.51.0'>  0.104708949E+02 </wgt>
<wgt id='scales1.00.5'>  0.108925391E+02 </wgt>
<wgt id='scales1.02.0'>  0.754129382E+01 </wgt>
<wgt id='scales2.01.0'>  0.782737977E+01 </wgt>
<wgt id='scales2.02.0'>  0.655599113E+01 </wgt>
</rwgt>
<scales uborns=' 0.150187176E+04'> </scales>
</event>
<event>
      4  10001  4.08536E+03  8.94427E-01  7.29735E-03  7.50077E-01
       1    -1     0     0   512     0  0.000000000E+00  0.000000000E+00  1.464515193E+03  1.464515193E+03  0.000000000E+00  0.00000E+00  9.000E+00
      21    -1     0     0   511   512  0.000000000E+00  0.000000000E+00 -1.980492262E+02  1.980492262E+02  0.000000000E+00  0.00000E+00  9.000E+00
       1     1     1     2   514     0 -3.026649705E+02  4.121490572E+02  8.941450652E+02  1.030033168E+03  1.868812365E-05  0.00000E+00  9.000E+00
      21     1     1     2   511   514  3.026649705E+02 -4.121490572E+02  3.723209013E+02  6.325312508E+02  1.206313194E-05  0.00000E+00  9.000E+00
#rwgt            1         181   4.4865504413841998E-003        6024     1634798           0
<rwgt>
<wgt id='central'>  0.408536427E+04 </wgt>
<wgt id='sudakovwgt'>  0.212237455E+01 </wgt>
<wgt id='scales0.50.5'>  0.526310158E+04 </wgt>
<wgt id='scales0.51.0'>  0.485181842E+04 </wgt>
<wgt id='scales1.00.5'>  0.443167135E+04 </wgt>
<wgt id='scales1.02.0'>  0.377774896E+04 </wgt>
<wgt id='scales2.01.0'>  0.348893531E+04 </wgt>
<wgt id='scales2.02.0'>  0.322623263E+04 </wgt>
</rwgt>
<scales uborns=' 0.511344238E+03'> </scales>
</event>
<event>
      5  10001  2.32365E+01  3.61839E+00  7.29735E-03  2.74171E-01
       1    -1     0     0   512     0  0.000000000E+00  0.000000000E+00  3.138531276E+03  3.138531276E+03  0.000000000E+00  0.00000E+00  9.000E+00
       1    -1     0     0   513     0  0.000000000E+00  0.000000000E+00 -7.909989461E+02  7.909989461E+02  0.000000000E+00  0.00000E+00  9.000E+00
       1     1     1     2   513     0  2.035699916E+02 -1.240729474E+03  2.330075994E+03  2.647660195E+03  3.051757812E-05  0.00000E+00  9.000E+00
       1     1     1     2   512     0 -2.065963370E+02  1.242712894E+03  3.865802832E+01  1.260361784E+03  1.832569013E-05  0.00000E+00  9.000E+00
      22     1     1     2     0     0  3.026345377E+00 -1.983419353E+00 -2.120169309E+01  2.150824281E+01  5.331201500E-07  0.00000E+00  9.000E+00
#rwgt            1          91   2.0401756934259780E-004        6024     1635747           0
<rwgt>
<wgt id='central'>  0.232365429E+02 </wgt>
<wgt id='sudakovwgt'>  0.942684596E-01 </wgt>
<wgt id='scales0.50.5'>  0.310265201E+02 </wgt>
<wgt id='scales0.51.0'>  0.271060755E+02 </wgt>
<wgt id='scales1.00.5'>  0.265972746E+02 </wgt>
<wgt id='scales1.02.0'>  0.204817020E+02 </wgt>
<wgt id='scales2.01.0'>  0.201474163E+02 </wgt>
<wgt id='scales2.02.0'>  0.177588439E+02 </wgt>
</rwgt>
<scales uborns=' 0.125854266E+04'> </scales>
</event>
<event>
      5  10001  1.75852E+07  1.17091E+01  7.29735E-03  1.88155E-01
       1    -1     0     0   513     0  0.000000000E+00  0.000000000E+00  9.824238502E+02  9.824238502E+02  0.000000000E+00  0.00000E+00  9.000E+00
      21    -1     0     0   511   514  0.000000000E+00  0.000000000E+00 -2.000871646E+01  2.000871646E+01  0.000000000E+00  0.00000E+00  9.000E+00
       1     1     1     2   511     0 -8.770578386E+01 -3.773543691E+01  1.797185190E+02  2.035067906E+02  3.303624740E-06  0.00000E+00  9.000E+00
      21     1     1     2   513   514  1.126310494E+02  5.426771070E+01  6.978730565E+02  7.089834559E+02  7.629394531E-06  0.00000E+00  9.000E+00
      22     1     1     2     0     0 -2.492526554E+01 -1.653227379E+01  8.482355819E+01  8.994232020E+01  1.651812370E-06  0.00000E+00  9.000E+00
#rwgt            1         181   1.3601186644581677E-003        6024     1643008           0
<rwgt>
<wgt id='central'>  0.175851954E+08 </wgt>
<wgt id='sudakovwgt'>  0.300883367E-01 </wgt>
<wgt id='scales0.50.5'>  0.210601095E+08 </wgt>
<wgt id='scales0.51.0'>  0.217022292E+08 </wgt>
<wgt id='scales1.00.5'>  0.170648938E+08 </wgt>
<wgt id='scales1.02.0'>  0.178781653E+08 </wgt>
<wgt id='scales2.01.0'>  0.145513262E+08 </wgt>
<wgt id='scales2.02.0'>  0.147937479E+08 </wgt>
</rwgt>
<scales uborns=' 0.125821666E+03'> </scales>
</event>
<event>
      5  10001  3.30511E+01  4.78073E+01  7.29735E-03  1.40196E-01
       2    -1     0     0   511     0  0.000000000E+00  0.000000000E+00  2.147775779E+03  2.147775779E+03  0.000000000E+00  0.00000E+00  9.000E+00
      21    -1     0     0   512   515  0.000000000E+00  0.000000000E+00 -6.665782937E+02  6.665782937E+02  0.000000000E+00  0.00000E+00  9.000E+00
       2     1     1     2   512     0  9.523707196E+02  5.943031045E+02  8.954017750E+02  1.435949340E+03  4.448663250E-05  0.00000E+00  9.000E+00
      21     1     1     2   511   515 -1.014639681E+03 -5.878869133E+02  5.064520396E+02  1.277340352E+03  1.525878906E-05  0.00000E+00  9.000E+00
      22     1     1     2     0     0  6.226896170E+01 -6.416191202E+00  7.934367073E+01  1.010643814E+02  9.536743164E-07  0.00000E+00  9.000E+00
#rwgt            1         182   7.4546564062006578E-003        6024     1643241           0
<rwgt>
<wgt id='central'>  0.330510784E+02 </wgt>
<wgt id='sudakovwgt'>  0.199716404E-02 </wgt>
<wgt id='scales0.50.5'>  0.436933490E+02 </wgt>
<wgt id='scales0.51.0'>  0.385994243E+02 </wgt>
<wgt id='scales1.00.5'>  0.374128183E+02 </wgt>
<wgt id='scales1.02.0'>  0.294290327E+02 </wgt>
<wgt id='scales2.01.0'>  0.286291409E+02 </wgt>
<wgt id='scales2.02.0'>  0.254916758E+02 </wgt>
</rwgt>
<scales uborns=' 0.118031125E+04'> </scales>
</event>
<event>
      4  10001  3.58404E+03  8.94427E-01  7.29735E-03  7.44634E-01
       1    -1     0     0   512     0  0.000000000E+00  0.000000000E+00  8.951664624E+02  8.951664624E+02  0.000000000E+00  0.00000E+00  9.000E+00
      21    -1     0     0   513   514  0.000000000E+00  0.000000000E+00 -5.639935003E+02  5.639935003E+02  0.000000000E+00  0.00000E+00  9.000E+00
       1     1     1     2   513     0  4.002147353E+02 -3.363982567E+02  6.596580769E+02  8.417151537E+02  0.000000000E+00  0.00000E+00  9.000E+00
      21     1     1     2   512   514 -4.002147353E+02  3.363982567E+02 -3.284851148E+02  6.174448090E+02  9.344061824E-06  0.00000E+00  9.000E+00
#rwgt            1         181   3.0351166881779756E-003        6024     1645311           0
<rwgt>
<wgt id='central'>  0.358403621E+04 </wgt>
<wgt id='sudakovwgt'>  0.175932279E+01 </wgt>
<wgt id='scales0.50.5'>  0.469328966E+04 </wgt>
<wgt id='scales0.51.0'>  0.425434983E+04 </wgt>
<wgt id='scales1.00.5'>  0.395382103E+04 </wgt>
<wgt id='scales1.02.0'>  0.326760131E+04 </wgt>
<wgt id='scales2.01.0'>  0.306206809E+04 </wgt>
<wgt id='scales2.02.0'>  0.279171485E+04 </wgt>
</rwgt>
<scales uborns=' 0.522815093E+03'> </scales>
</event>
<event>
      5  10001  2.07964E+03  3.10016E+02  7.29735E-03  1.05131E-01
       2    -1     0     0   513     0  0.000000000E+00  0.000000000E+00  2.027048023E+03  2.027048023E+03  0.000000000E+00  0.00000E+00  9.000E+00
      21    -1     0     0   511   515  0.000000000E+00  0.000000000E+00 -3.659395001E+02  3.659395001E+02  0.000000000E+00  0.00000E+00  9.000E+00
      22     1     1     2     0     0 -1.109414845E+02  4.952623384E+01  5.837599234E+02  5.962688228E+02  7.629394531E-06  0.00000E+00  9.000E+00
      21     1     1     2   513   515  5.647185734E+02  2.623360799E+01 -6.130007896E+01  5.686413360E+02  5.309833873E-06  0.00000E+00  9.000E+00
       2     1     1     2   511     0 -4.537770889E+02 -7.575984182E+01  1.138648679E+03  1.228077365E+03  0.000000000E+00  0.00000E+00  9.000E+00
#rwgt            1         182   1.2092546967244232E-002        6024     1646361           0
<rwgt>
<wgt id='central'>  0.207964464E+04 </wgt>
<wgt id='sudakovwgt'>  0.388965630E-01 </wgt>
<wgt id='scales0.50.5'>  0.274576592E+04 </wgt>
<wgt id='scales0.51.0'>  0.246360457E+04 </wgt>
<wgt id='scales1.00.5'>  0.231782515E+04 </wgt>
<wgt id='scales1.02.0'>  0.187790346E+04 </wgt>
<wgt id='scales2.01.0'>  0.177978405E+04 </wgt>
<wgt id='scales2.02.0'>  0.160713519E+04 </wgt>
</rwgt>
<scales uborns=' 0.573435461E+03'> </scales>
</event>
<event>
      5  10001  2.80026E+01  3.79221E+00  7.29735E-03  2.69051E-01
      21    -1     0     0   511   512  0.000000000E+00  0.000000000E+00  7.872779966E+02  7.872779966E+02  0.000000000E+00  0.00000E+00  9.000E+00
       2    -1     0     0   514     0  0.000000000E+00  0.000000000E+00 -2.289333483E+03  2.289333483E+03  0.000000000E+00  0.00000E+00  9.000E+00
       2     1     1     2   511     0 -9.900388409E+02 -6.545671532E+02 -9.703499838E+01  1.190819405E+03  1.501847815E-05  0.00000E+00  9.000E+00
      21     1     1     2   514   512  1.016642269E+03  6.676772524E+02 -1.401877926E+03  1.855967709E+03  0.000000000E+00  0.00000E+00  9.000E+00
      22     1     1     2     0     0 -2.660342822E+01 -1.311009923E+01 -3.142561904E+00  2.982436572E+01  2.980232239E-07  0.00000E+00  9.000E+00
#rwgt            1         187   1.8111970384319469E-003        6024     1647114           0
<rwgt>
<wgt id='central'>  0.280026090E+02 </wgt>
<wgt id='sudakovwgt'>  0.279183853E+01 </wgt>
<wgt id='scales0.50.5'>  0.373542317E+02 </wgt>
<wgt id='scales0.51.0'>  0.326857344E+02 </wgt>
<wgt id='scales1.00.5'>  0.320022061E+02 </wgt>
<wgt id='scales1.02.0'>  0.247164900E+02 </wgt>
<wgt id='scales2.01.0'>  0.242672997E+02 </wgt>
<wgt id='scales2.02.0'>  0.214195278E+02 </wgt>
</rwgt>
<scales uborns=' 0.121638521E+04'> </scales>
</event>
<event>
      4  10001  1.18505E+06  8.94427E-01  7.29735E-03  7.49200E-01
      21    -1     0     0   515   512  0.000000000E+00  0.000000000E+00  3.334130965E+01  3.334130965E+01  0.000000000E+00  0.00000E+00  9.000E+00
       1    -1     0     0   512     0  0.000000000E+00  0.000000000E+00 -1.354431285E+03  1.354431285E+03  0.000000000E+00  0.00000E+00  9.000E+00
       1     1     1     2   513     0 -2.370338194E+01  1.959517685E+02 -4.034467064E+02  4.491416155E+02  1.078959322E-05  0.00000E+00  9.000E+00
      21     1     1     2   515   513  2.370338194E+01 -1.959517685E+02 -9.176432687E+02  9.386309788E+02  1.078959322E-05  0.00000E+00  9.000E+00
#rwgt            1         186   1.4649477490399786E-003        6024     1650205           0
<rwgt>
<wgt id='central'>  0.118505438E+07 </wgt>
<wgt id='sudakovwgt'>  0.146124058E+01 </wgt>
<wgt id='scales0.50.5'>  0.145930425E+07 </wgt>
<wgt id='scales0.51.0'>  0.144195904E+07 </wgt>
<wgt id='scales1.00.5'>  0.119930487E+07 </wgt>
<wgt id='scales1.02.0'>  0.116298647E+07 </wgt>
<wgt id='scales2.01.0'>  0.991908137E+06 </wgt>
<wgt id='scales2.02.0'>  0.973440569E+06 </wgt>
</rwgt>
<scales uborns=' 0.197380206E+03'> </scales>
</event>
<event>
      4  10001  1.27896E+01  8.94427E-01  7.29735E-03  7.41708E-01
       1    -1     0     0   514     0  0.000000000E+00  0.000000000E+00  1.617783210E+03  1.617783210E+03  0.000000000E+00  0.00000E+00  9.000E+00
      21    -1     0     0   513   514  0.000000000E+00  0.000000000E+00 -1.320867202E+03  1.320867202E+03  0.000000000E+00  0.00000E+00  9.000E+00
       1     1     1     2   511     0  1.401449505E+03 -1.084276238E+02  5.518445292E+02  1.510082663E+03  7.629394531E-06  0.00000E+00  9.000E+00
      21     1     1     2   513   511 -1.401449505E+03  1.084276238E+02 -2.549285210E+02  1.428567750E+03  2.930124568E-05  0.00000E+00  9.000E+00
#rwgt            1         181   2.0025644217980323E-003        6024     1651247           0
<rwgt>
<wgt id='central'>  0.127895996E+02 </wgt>
<wgt id='sudakovwgt'>  0.511801308E+01 </wgt>
<wgt id='scales0.50.5'>  0.172354279E+02 </wgt>
<wgt id='scales0.51.0'>  0.148905572E+02 </wgt>
<wgt id='scales1.00.5'>  0.148036253E+02 </wgt>
<wgt id='scales1.02.0'>  0.111592391E+02 </wgt>
<wgt id='scales2.01.0'>  0.111077477E+02 </wgt>
<wgt id='scales2.02.0'>  0.969178180E+01 </wgt>
</rwgt>
<scales uborns=' 0.140563767E+04'> </scales>
</event>
<event>
      4  10001  1.32095E+06  8.94427E-01  7.29735E-03  7.52546E-01
       1    -1     0     0   512     0  0.000000000E+00  0.000000000E+00  4.084516262E+02  4.084516262E+02  0.000000000E+00  0.00000E+00  9.000E+00
       1    -1     0     0   511     0  0.000000000E+00  0.000000000E+00 -8.265359532E+02  8.265359532E+02  0.000000000E+00  0.00000E+00  9.000E+00
       1     1     1     2   512     0 -4.989081566E+01  1.873017530E+02 -7.911627518E+02  8.145609493E+02  1.078959322E-05  0.00000E+00  9.000E+00
       1     1     1     2   511     0  4.989081566E+01 -1.873017530E+02  3.730784249E+02  4.204266301E+02  0.000000000E+00  0.00000E+00  9.000E+00
#rwgt            1          91   2.6032032176521823E-004        6024     1652471           0
<rwgt>
<wgt id='central'>  0.132095331E+07 </wgt>
<wgt id='sudakovwgt'>  0.366446002E+01 </wgt>
<wgt id='scales0.50.5'>  0.168931019E+07 </wgt>
<wgt id='scales0.51.0'>  0.160817557E+07 </wgt>
<wgt id='scales1.00.5'>  0.138759370E+07 </wgt>
<wgt id='scales1.02.0'>  0.125952585E+07 </wgt>
<wgt id='scales2.01.0'>  0.110517892E+07 </wgt>
<wgt id='scales2.02.0'>  0.105378812E+07 </wgt>
</rwgt>
<scales uborns=' 0.193832505E+03'> </scales>
</event>
<event>
      5  10001  7.48967E+02  6.22302E+00  7.29735E-03  2.23038E-01
      21    -1     0     0   514   511  0.000000000E+00  0.000000000E+00  6.623256058E+02  6.623256058E+02  0.000000000E+00  0.00000E+00  9.000E+00
      -1    -1     0     0     0   513  0.000000000E+00  0.000000000E+00 -1.062611131E+03  1.062611131E+03  0.000000000E+00  0.00000E+00  9.000E+00
      -1     1     1     2     0   511 -6.327751304E+02  2.609670410E+02 -6.628746045E+02  9.528435881E+02  0.000000000E+00  0.00000E+00  9.000E+00
      21     1     1     2   514   513  6.314050527E+02 -2.548967130E+02  2.928353456E+02  7.412133394E+02  1.144409180E-05  0.00000E+00  9.000E+00
      22     1     1     2     0     0  1.370077720E+00 -6.070327946E+00 -3.024626650E+01  3.087980945E+01  3.371747881E-07  0.00000E+00  9.000E+00
#rwgt            1         196   7.9123857361534694E-004        6024     1665214           0
<rwgt>
<wgt id='central'>  0.748966701E+03 </wgt>
<wgt id='sudakovwgt'>  0.246007697E-01 </wgt>
<wgt id='scales0.50.5'>  0.998239484E+03 </wgt>
<wgt id='scales0.51.0'>  0.883987562E+03 </wgt>
<wgt id='scales1.00.5'>  0.845768045E+03 </wgt>
<wgt id='scales1.02.0'>  0.668364258E+03 </wgt>
<wgt id='scales2.01.0'>  0.642968151E+03 </wgt>
<wgt id='scales2.02.0'>  0.573772851E+03 </wgt>
</rwgt>
<scales uborns=' 0.682689222E+03'> </scales>
</event>
<event>
      5  10001  3.59457E+02  1.14457E+02  7.29735E-03  1.21246E-01
       2    -1     0     0   513     0  0.000000000E+00  0.000000000E+00  3.079978987E+03  3.079978987E+03  0.000000000E+00  0.00000E+00  9.000E+00
       4    -1     0     0   512     0  0.000000000E+00  0.000000000E+00 -3.265013856E+02  3.265013856E+02  0.000000000E+00  0.00000E+00  9.000E+00
       2     1     1     2   512     0  3.378252207E+01 -7.407945405E+02  2.353231228E+03  2.467309268E+03  3.051757812E-05  0.00000E+00  9.000E+00
       4     1     1     2   513     0 -4.808266806E+01  7.014393971E+02  1.949004192E+02  7.295994410E+02  1.175768662E-05  0.00000E+00  9.000E+00
      22     1     1     2     0     0  1.430014599E+01  3.935514332E+01  2.053459540E+02  2.095716639E+02  0.000000000E+00  0.00000E+00  9.000E+00
#rwgt            1         107   2.4026101059455263E-004        6024     1665688           0
<rwgt>
<wgt id='central'>  0.359456659E+03 </wgt>
<wgt id='sudakovwgt'>  0.613948696E-04 </wgt>
<wgt id='scales0.50.5'>  0.451580110E+03 </wgt>
<wgt id='scales0.51.0'>  0.423170141E+03 </wgt>
<wgt id='scales1.00.5'>  0.383589520E+03 </wgt>
<wgt id='scales1.02.0'>  0.336857185E+03 </wgt>
<wgt id='scales2.01.0'>  0.309254965E+03 </wgt>
<wgt id='scales2.02.0'>  0.289811457E+03 </wgt>
</rwgt>
<scales uborns=' 0.774675418E+03'> </scales>
</event>
<event>
      5  10001  6.28491E+00  2.55179E+01  7.29735E-03  1.58086E-01
       2    -1     0     0   512     0  0.000000000E+00  0.000000000E+00  2.222503804E+03  2.222503804E+03  0.000000000E+00  0.00000E+00  9.000E+00
       2    -1     0     0   511     0  0.000000000E+00  0.000000000E+00 -1.236521101E+03  1.236521101E+03  0.000000000E+00  0.00000E+00  9.000E+00
       2     1     1     2   511     0 -1.019694288E+03  1.242249729E+03  9.078059233E+02  1.845825676E+03  2.157918644E-05  0.00000E+00  9.000E+00
       2     1     1     2   512     0  9.556020938E+02 -1.200597980E+03  6.687396195E+01  1.535930662E+03  2.205855085E-05  0.00000E+00  9.000E+00
      22     1     1     2     0     0  6.409219462E+01 -4.165174904E+01  1.130281795E+01  7.726856607E+01  2.920019320E-07  0.00000E+00  9.000E+00
#rwgt            1          97   2.7080463828046226E-003        6024     1667192           0
<rwgt>
<wgt id='central'>  0.628490780E+01 </wgt>
<wgt id='sudakovwgt'>  0.332754483E-02 </wgt>
<wgt id='scales0.50.5'>  0.803945062E+01 </wgt>
<wgt id='scales0.51.0'>  0.730049506E+01 </wgt>
<wgt id='scales1.00.5'>  0.692106812E+01 </wgt>
<wgt id='scales1.02.0'>  0.574127414E+01 </wgt>
<wgt id='scales2.01.0'>  0.546923122E+01 </wgt>
<wgt id='scales2.02.0'>  0.499615042E+01 </wgt>
</rwgt>
<scales uborns=' 0.160911185E+04'> </scales>
</event>
<event>
      5  10001  7.50394E+04  4.31338E+02  7.29735E-03  1.00709E-01
      21    -1     0     0   513   511  0.000000000E+00  0.000000000E+00  4.176870265E+02  4.176870265E+02  0.000000000E+00  0.00000E+00  9.000E+00
       2    -1     0     0   514     0  0.000000000E+00  0.000000000E+00 -2.473336212E+02  2.473336212E+02  0.000000000E+00  0.00000E+00  9.000E+00
       2     1     1     2   513     0 -9.406538898E+01 -7.248995621E+01 -2.321017565E+01  1.210033198E+02  2.311553887E-06  0.00000E+00  9.000E+00
      21     1     1     2   514   511  1.613751008E+02 -1.812222256E+02  1.238044028E+02  2.724168650E+02  4.862803949E-06  0.00000E+00  9.000E+00
      22     1     1     2     0     0 -6.730971180E+01  2.537121818E+02  6.975917822E+01  2.716004629E+02  7.569555219E-06  0.00000E+00  9.000E+00
#rwgt            1         187   2.1114901781850901E-003        6024     1705863           0
<rwgt>
<wgt id='central'>  0.750394146E+05 </wgt>
<wgt id='sudakovwgt'>  0.454872151E-03 </wgt>
<wgt id='scales0.50.5'>  0.945391772E+05 </wgt>
<wgt id='scales0.51.0'>  0.901640479E+05 </wgt>
<wgt id='scales1.00.5'>  0.786806194E+05 </wgt>
<wgt id='scales1.02.0'>  0.716021686E+05 </wgt>
<wgt id='scales2.01.0'>  0.634638191E+05 </wgt>
<wgt id='scales2.02.0'>  0.605568151E+05 </wgt>
</rwgt>
<scales uborns=' 0.313216300E+03'> </scales>
</event>
<event>
      5  10001  4.38279E+03  2.52629E+02  7.29735E-03  1.08075E-01
       2    -1     0     0   512     0  0.000000000E+00  0.000000000E+00  6.914073170E+02  6.914073170E+02  0.000000000E+00  0.00000E+00  9.000E+00
      -5    -1     0     0     0   512  0.000000000E+00  0.000000000E+00 -5.036635207E+02  5.036635207E+02  0.000000000E+00  0.00000E+00  9.000E+00
       2     1     1     2   514     0  1.942495772E+02  4.550405579E+02  3.941363845E+02  6.325648561E+02  5.394796609E-06  0.00000E+00  9.000E+00
      22     1     1     2     0     0 -1.269065594E+02 -1.288849216E+02 -2.305356249E+01  1.823405182E+02  8.259061849E-07  0.00000E+00  9.000E+00
      -5     1     1     2     0   514 -6.734301773E+01 -3.261556363E+02 -1.833390258E+02  3.801654634E+02  1.044697871E-05  0.00000E+00  9.000E+00
#rwgt            1         148   5.5277199033911984E-005        6024     1705977           0
<rwgt>
<wgt id='central'>  0.438278525E+04 </wgt>
<wgt id='sudakovwgt'>  0.111810152E-04 </wgt>
<wgt id='scales0.50.5'>  0.505771796E+04 </wgt>
<wgt id='scales0.51.0'>  0.520643099E+04 </wgt>
<wgt id='scales1.00.5'>  0.425760290E+04 </wgt>
<wgt id='scales1.02.0'>  0.445011565E+04 </wgt>
<wgt id='scales2.01.0'>  0.374211045E+04 </wgt>
<wgt id='scales2.02.0'>  0.379959439E+04 </wgt>
</rwgt>
<scales uborns=' 0.505294598E+03'> </scales>
</event>
<event>
      5  10001  1.54063E+01  1.28441E+02  7.29735E-03  1.19128E-01
       1    -1     0     0   512     0  0.000000000E+00  0.000000000E+00  8.819541913E+02  8.819541913E+02  0.000000000E+00  0.00000E+00  9.000E+00
       2    -1     0     0   511     0  0.000000000E+00  0.000000000E+00 -3.426900823E+03  3.426900823E+03  0.000000000E+00  0.00000E+00  9.000E+00
       1     1     1     2   511     0  1.106735808E+03 -6.992524917E+02  7.057380453E+01  1.311029694E+03  2.302684110E-05  0.00000E+00  9.000E+00
       2     1     1     2   512     0 -1.120708404E+03  7.372020656E+02 -2.632021546E+03  2.954148207E+03  4.315837288E-05  0.00000E+00  9.000E+00
      22     1     1     2     0     0  1.397259550E+01 -3.794957381E+01  1.650110967E+01  4.367711298E+01  5.331201500E-07  0.00000E+00  9.000E+00
#rwgt            1          96   2.4589555122552747E-003        6024     1706322           0
<rwgt>
<wgt id='central'>  0.154063141E+02 </wgt>
<wgt id='sudakovwgt'>  0.140624524E-04 </wgt>
<wgt id='scales0.50.5'>  0.203422385E+02 </wgt>
<wgt id='scales0.51.0'>  0.179479351E+02 </wgt>
<wgt id='scales1.00.5'>  0.174615424E+02 </wgt>
<wgt id='scales1.02.0'>  0.137037093E+02 </wgt>
<wgt id='scales2.01.0'>  0.133734337E+02 </wgt>
<wgt id='scales2.02.0'>  0.118955004E+02 </wgt>
</rwgt>
<scales uborns=' 0.135766445E+04'> </scales>
</event>
<event>
      5  10001  2.20339E+03  4.67810E+01  7.29735E-03  1.40745E-01
      -2    -1     0     0     0   513  0.000000000E+00  0.000000000E+00  2.671424554E+02  2.671424554E+02  0.000000000E+00  0.00000E+00  9.000E+00
      -2    -1     0     0     0   512  0.000000000E+00  0.000000000E+00 -1.994969347E+03  1.994969347E+03  0.000000000E+00  0.00000E+00  9.000E+00
      -2     1     1     2     0   513  5.091046896E+02 -2.931781527E+02 -9.769331874E+02  1.139973450E+03  1.078959322E-05  0.00000E+00  9.000E+00
      -2     1     1     2     0   512 -4.624188335E+02  2.961599952E+02 -8.503417823E+02  1.012236665E+03  1.078959322E-05  0.00000E+00  9.000E+00
      22     1     1     2     0     0 -4.668585610E+01 -2.981842530E+00  9.944807809E+01  1.099016869E+02  3.568322551E-06  0.00000E+00  9.000E+00
#rwgt            1         122   4.8749294044963173E-006        6024     1714349           0
<rwgt>
<wgt id='central'>  0.220339305E+04 </wgt>
<wgt id='sudakovwgt'>  0.244754385E-01 </wgt>
<wgt id='scales0.50.5'>  0.280967197E+04 </wgt>
<wgt id='scales0.51.0'>  0.261075751E+04 </wgt>
<wgt id='scales1.00.5'>  0.237126700E+04 </wgt>
<wgt id='scales1.02.0'>  0.205218721E+04 </wgt>
<wgt id='scales2.01.0'>  0.188535394E+04 </wgt>
<wgt id='scales2.02.0'>  0.175597567E+04 </wgt>
</rwgt>
<scales uborns=' 0.567826417E+03'> </scales>
</event>
<event>
      5  10001  4.09378E+03  5.11119E+01  7.29735E-03  1.38533E-01
       2    -1     0     0   512     0  0.000000000E+00  0.000000000E+00  6.548857561E+02  6.548857561E+02  0.000000000E+00  0.00000E+00  9.000E+00
       3    -1     0     0   511     0  0.000000000E+00  0.000000000E+00 -4.902644412E+02  4.902644412E+02  0.000000000E+00  0.00000E+00  9.000E+00
      22     1     1     2     0     0 -1.972064413E+02  4.313852116E+01  1.142577532E+02  2.319615198E+02  4.046097457E-06  0.00000E+00  9.000E+00
       3     1     1     2   512     0  5.053053093E+02 -7.276965361E+01 -1.645387526E+02  5.363784850E+02  1.144409180E-05  0.00000E+00  9.000E+00
       2     1     1     2   511     0 -3.080988680E+02  2.963113245E+01  2.149023143E+02  3.768101925E+02  6.031565972E-06  0.00000E+00  9.000E+00
#rwgt            1         102   1.3889133972619087E-004        6024     1714815           0
<rwgt>
<wgt id='central'>  0.409377500E+04 </wgt>
<wgt id='sudakovwgt'>  0.986968285E-03 </wgt>
<wgt id='scales0.50.5'>  0.498688258E+04 </wgt>
<wgt id='scales0.51.0'>  0.486185582E+04 </wgt>
<wgt id='scales1.00.5'>  0.419905504E+04 </wgt>
<wgt id='scales1.02.0'>  0.398496351E+04 </wgt>
<wgt id='scales2.01.0'>  0.349610333E+04 </wgt>
<wgt id='scales2.02.0'>  0.340317364E+04 </wgt>
</rwgt>
<scales uborns=' 0.511166131E+03'> </scales>
</event>
<event>
      5  10001  7.64020E+02  6.24505E+00  7.29735E-03  2.22805E-01
      -3    -1     0     0     0   511  0.000000000E+00  0.000000000E+00  3.760859365E+02  3.760859365E+02  0.000000000E+00  0.00000E+00  9.000E+00
       2    -1     0     0   511     0  0.000000000E+00  0.000000000E+00 -1.416280694E+03  1.416280694E+03  0.000000000E+00  0.00000E+00  9.000E+00
      22     1     1     2     0     0 -9.307022032E+01  1.280872982E+02 -1.963689898E+02  2.522482944E+02  0.000000000E+00  0.00000E+00  9.000E+00
      -3     1     1     2     0   512  4.049578859E+02 -5.467157820E+02 -1.957956027E+02  7.079724244E+02  7.136645101E-06  0.00000E+00  9.000E+00
       2     1     1     2   512     0 -3.118876656E+02  4.186284839E+02 -6.480301648E+02  8.321459114E+02  1.525878906E-05  0.00000E+00  9.000E+00
#rwgt            1         170   2.8932844390795395E-004        6024     1716586           0
<rwgt>
<wgt id='central'>  0.764020055E+03 </wgt>
<wgt id='sudakovwgt'>  0.756103608E+00 </wgt>
<wgt id='scales0.50.5'>  0.944739200E+03 </wgt>
<wgt id='scales0.51.0'>  0.901817822E+03 </wgt>
<wgt id='scales1.00.5'>  0.800382988E+03 </wgt>
<wgt id='scales1.02.0'>  0.729602593E+03 </wgt>
<wgt id='scales2.01.0'>  0.655851717E+03 </wgt>
<wgt id='scales2.02.0'>  0.626307052E+03 </wgt>
</rwgt>
<scales uborns=' 0.680363266E+03'> </scales>
</event>
<event>
      5  10001  3.73908E+02  9.88484E+00  7.29735E-03  1.96340E-01
       2    -1     0     0   513     0  0.000000000E+00  0.000000000E+00  1.050736719E+03  1.050736719E+03  0.000000000E+00  0.00000E+00  9.000E+00
       1    -1     0     0   512     0  0.000000000E+00  0.000000000E+00 -1.036990253E+03  1.036990253E+03  0.000000000E+00  0.00000E+00  9.000E+00
       2     1     1     2   512     0 -2.362971006E+02 -6.465594157E+02  6.446905390E+02  9.431337598E+02  7.629394531E-06  0.00000E+00  9.000E+00
       1     1     1     2   513     0  2.566884048E+02  7.251711134E+02 -6.984131827E+02  1.039010613E+03  1.868812365E-05  0.00000E+00  9.000E+00
      22     1     1     2     0     0 -2.039130423E+01 -7.861169766E+01  6.746910990E+01  1.055825984E+02  1.348699152E-06  0.00000E+00  9.000E+00
#rwgt            1          92   1.6591786988331141E-003        6024     1733807           0
<rwgt>
<wgt id='central'>  0.373907663E+03 </wgt>
<wgt id='sudakovwgt'>  0.505024304E-02 </wgt>
<wgt id='scales0.50.5'>  0.473330882E+03 </wgt>
<wgt id='scales0.51.0'>  0.440242586E+03 </wgt>
<wgt id='scales1.00.5'>  0.402010640E+03 </wgt>
<wgt id='scales1.02.0'>  0.349203701E+03 </wgt>
<wgt id='scales2.01.0'>  0.321650597E+03 </wgt>
<wgt id='scales2.02.0'>  0.300398973E+03 </wgt>
</rwgt>
<scales uborns=' 0.769414773E+03'> </scales>
</event>
<event>
      5  10001  2.11134E+00  5.85949E+01  7.29735E-03  1.35255E-01
       2    -1     0     0   512     0  0.000000000E+00  0.000000000E+00  1.757560696E+03  1.757560696E+03  0.000000000E+00  0.00000E+00  9.000E+00
       2    -1     0     0   511     0  0.000000000E+00  0.000000000E+00 -2.548096723E+03  2.548096723E+03  0.000000000E+00  0.00000E+00  9.000E+00
       2     1     1     2   511     0 -1.442512612E+03 -1.387461206E+03  3.014917617E+02  2.024052498E+03  1.427329020E-05  0.00000E+00  9.000E+00
       2     1     1     2   512     0  9.686896096E+02  9.393864427E+02 -7.810745640E+02  1.559129219E+03  2.157918644E-05  0.00000E+00  9.000E+00
      22     1     1     2     0     0  4.738230025E+02  4.480747632E+02 -3.109532251E+02  7.224757015E+02  7.629394531E-06  0.00000E+00  9.000E+00
#rwgt            1          97   3.6868606701426772E-003        6024     1758813           0
<rwgt>
<wgt id='central'>  0.211133745E+01 </wgt>
<wgt id='sudakovwgt'>  0.326844003E-02 </wgt>
<wgt id='scales0.50.5'>  0.274541326E+01 </wgt>
<wgt id='scales0.51.0'>  0.244375211E+01 </wgt>
<wgt id='scales1.00.5'>  0.237196760E+01 </wgt>
<wgt id='scales1.02.0'>  0.189315920E+01 </wgt>
<wgt id='scales2.01.0'>  0.184298745E+01 </wgt>
<wgt id='scales2.02.0'>  0.165253756E+01 </wgt>
</rwgt>
<scales uborns=' 0.200228879E+04'> </scales>
</event>
<event>
      5  10001  3.64610E+01  7.14745E+02  7.29735E-03  9.46346E-02
       2    -1     0     0   512     0  0.000000000E+00  0.000000000E+00  1.649367234E+03  1.649367234E+03  0.000000000E+00  0.00000E+00  9.000E+00
      21    -1     0     0   514   512  0.000000000E+00  0.000000000E+00 -9.050726537E+02  9.050726537E+02  0.000000000E+00  0.00000E+00  9.000E+00
      22     1     1     2     0     0 -2.276251368E+01  5.531902979E+02  2.457542493E+01  5.542035630E+02  2.739220927E-06  0.00000E+00  9.000E+00
      21     1     1     2   514   513  1.294067853E+02 -1.074224974E+03 -2.837220798E+01  1.082363337E+03  2.024733901E-05  0.00000E+00  9.000E+00
       2     1     1     2   513     0 -1.066442716E+02  5.210346759E+02  7.480913634E+02  9.178729880E+02  1.078959322E-05  0.00000E+00  9.000E+00
#rwgt            1         182   6.6604527445484080E-003        6024     1784714           0
<rwgt>
<wgt id='central'>  0.364610175E+02 </wgt>
<wgt id='sudakovwgt'>  0.862900957E-03 </wgt>
<wgt id='scales0.50.5'>  0.481521608E+02 </wgt>
<wgt id='scales0.51.0'>  0.425954251E+02 </wgt>
<wgt id='scales1.00.5'>  0.412174765E+02 </wgt>
<wgt id='scales1.02.0'>  0.325093345E+02 </wgt>
<wgt id='scales2.01.0'>  0.315741685E+02 </wgt>
<wgt id='scales2.02.0'>  0.281521408E+02 </wgt>
</rwgt>
<scales uborns=' 0.115952842E+04'> </scales>
</event>
<event>
      5  10001  1.16851E+01  7.68277E+01  7.29735E-03  1.29206E-01
      21    -1     0     0   513   514  0.000000000E+00  0.000000000E+00  2.084059923E+03  2.084059923E+03  0.000000000E+00  0.00000E+00  9.000E+00
       2    -1     0     0   514     0  0.000000000E+00  0.000000000E+00 -2.289192264E+03  2.289192264E+03  0.000000000E+00  0.00000E+00  9.000E+00
       2     1     1     2   511     0 -4.774970865E+02  1.030939727E+03 -1.422602596E+03  1.820614823E+03  2.157918644E-05  0.00000E+00  9.000E+00
      21     1     1     2   513   511  5.322629778E+02 -1.324941792E+03  1.548631134E+03  2.106426600E+03  3.051757812E-05  0.00000E+00  9.000E+00
      22     1     1     2     0     0 -5.476589138E+01  2.940020657E+02 -3.311608799E+02  4.462107640E+02  6.607249480E-06  0.00000E+00  9.000E+00
#rwgt            1         187   6.1266679679103341E-003        6024     1785262           0
<rwgt>
<wgt id='central'>  0.116850910E+02 </wgt>
<wgt id='sudakovwgt'>  0.156950727E-02 </wgt>
<wgt id='scales0.50.5'>  0.163096842E+02 </wgt>
<wgt id='scales0.51.0'>  0.136006377E+02 </wgt>
<wgt id='scales1.00.5'>  0.140125996E+02 </wgt>
<wgt id='scales1.02.0'>  0.987200712E+01 </wgt>
<wgt id='scales2.01.0'>  0.101510367E+02 </wgt>
<wgt id='scales2.02.0'>  0.857597335E+01 </wgt>
</rwgt>
<scales uborns=' 0.142965745E+04'> </scales>
</event>
<event>
      4  10001  3.45601E+03  8.94427E-01  7.29735E-03  7.50721E-01
      21    -1     0     0   512   514  0.000000000E+00  0.000000000E+00  5.273201578E+02  5.273201578E+02  0.000000000E+00  0.00000E+00  9.000E+00
       1    -1     0     0   511     0  0.000000000E+00  0.000000000E+00 -7.314160518E+02  7.314160518E+02  0.000000000E+00  0.00000E+00  9.000E+00
       1     1     1     2   512     0 -5.734862239E+01 -5.229138135E+02 -4.365696058E+02  6.836086172E+02  9.344061824E-06  0.00000E+00  9.000E+00
      21     1     1     2   511   514  5.734862239E+01  5.229138135E+02  2.324737118E+02  5.751275924E+02  7.136645101E-06  0.00000E+00  9.000E+00
#rwgt            1         186   3.3910680958548259E-003        6024     1786228           0
<rwgt>
<wgt id='central'>  0.345600722E+04 </wgt>
<wgt id='sudakovwgt'>  0.209862714E+01 </wgt>
<wgt id='scales0.50.5'>  0.448217101E+04 </wgt>
<wgt id='scales0.51.0'>  0.410181547E+04 </wgt>
<wgt id='scales1.00.5'>  0.377648092E+04 </wgt>
<wgt id='scales1.02.0'>  0.317814311E+04 </wgt>
<wgt id='scales2.01.0'>  0.295302203E+04 </wgt>
<wgt id='scales2.02.0'>  0.271559590E+04 </wgt>
</rwgt>
<scales uborns=' 0.526049162E+03'> </scales>
</event>
<event>
      4  10001  6.39528E+02  8.94427E-01  7.29735E-03  7.47162E-01
      21    -1     0     0   513   515  0.000000000E+00  0.000000000E+00  9.678193520E+02  9.678193520E+02  0.000000000E+00  0.00000E+00  9.000E+00
       1    -1     0     0   512     0  0.000000000E+00  0.000000000E+00 -9.113348409E+02  9.113348409E+02  0.000000000E+00  0.00000E+00  9.000E+00
       1     1     1     2   513     0 -4.015174841E+02 -5.751705806E+02 -5.965158333E+02  9.207978205E+02  1.078959322E-05  0.00000E+00  9.000E+00
      21     1     1     2   512   515  4.015174841E+02  5.751705806E+02  6.530003443E+02  9.583563724E+02  1.078959322E-05  0.00000E+00  9.000E+00
#rwgt            1         186   2.9954317759681506E-003        6024     1787658           0
<rwgt>
<wgt id='central'>  0.639528214E+03 </wgt>
<wgt id='sudakovwgt'>  0.165401084E+01 </wgt>
<wgt id='scales0.50.5'>  0.848761640E+03 </wgt>
<wgt id='scales0.51.0'>  0.754398374E+03 </wgt>
<wgt id='scales1.00.5'>  0.719522805E+03 </wgt>
<wgt id='scales1.02.0'>  0.572848480E+03 </wgt>
<wgt id='scales2.01.0'>  0.549276421E+03 </wgt>
<wgt id='scales2.02.0'>  0.492006859E+03 </wgt>
</rwgt>
<scales uborns=' 0.701453838E+03'> </scales>
</event>
<event>
      5  10001  5.99382E+00  6.89345E+00  7.29735E-03  2.16499E-01
      21    -1     0     0   511   514  0.000000000E+00  0.000000000E+00  9.155051416E+02  9.155051416E+02  0.000000000E+00  0.00000E+00  9.000E+00
       2    -1     0     0   513     0  0.000000000E+00  0.000000000E+00 -2.963596943E+03  2.963596943E+03  0.000000000E+00  0.00000E+00  9.000E+00
       2     1     1     2   511     0 -6.189187745E+02 -1.469557166E+03 -1.332644559E+03  2.078124210E+03  4.825252777E-05  0.00000E+00  9.000E+00
      21     1     1     2   513   514  6.291228753E+02  1.496734997E+03 -6.994914860E+02  1.767851686E+03  7.629394531E-06  0.00000E+00  9.000E+00
      22     1     1     2     0     0 -1.020410086E+01 -2.717783152E+01 -1.595575646E+01  3.312618850E+01  3.371747881E-07  0.00000E+00  9.000E+00
#rwgt            1         187   7.2303304180415693E-003        6024     1789509           0
<rwgt>
<wgt id='central'>  0.599381506E+01 </wgt>
<wgt id='sudakovwgt'>  0.439857986E+00 </wgt>
<wgt id='scales0.50.5'>  0.809236231E+01 </wgt>
<wgt id='scales0.51.0'>  0.696129449E+01 </wgt>
<wgt id='scales1.00.5'>  0.696769303E+01 </wgt>
<wgt id='scales1.02.0'>  0.520782146E+01 </wgt>
<wgt id='scales2.01.0'>  0.521661030E+01 </wgt>
<wgt id='scales2.02.0'>  0.453253102E+01 </wgt>
</rwgt>
<scales uborns=' 0.162397543E+04'> </scales>
</event>
<event>
      5  10001  1.52299E+07  1.12210E+01  7.29735E-03  1.90146E-01
       1    -1     0     0   515     0  0.000000000E+00  0.000000000E+00  2.578222152E+02  2.578222152E+02  0.000000000E+00  0.00000E+00  9.000E+00
      21    -1     0     0   512   511  0.000000000E+00  0.000000000E+00 -6.635226940E+01  6.635226940E+01  0.000000000E+00  0.00000E+00  9.000E+00
       1     1     1     2   512     0 -7.622604525E+01  6.555852642E+01  9.365383956E+01  1.374022271E+02  3.015782986E-06  0.00000E+00  9.000E+00
      21     1     1     2   515   511  1.037578836E+02 -7.507409720E+01  6.765688096E+01  1.448422315E+02  2.861022949E-06  0.00000E+00  9.000E+00
      22     1     1     2     0     0 -2.753183832E+01  9.515570786E+00  3.015922525E+01  4.193002595E+01  4.768371582E-07  0.00000E+00  9.000E+00
#rwgt            1         181   2.1254812239287035E-003        6024     1791948           0
<rwgt>
<wgt id='central'>  0.152298620E+08 </wgt>
<wgt id='sudakovwgt'>  0.550237747E-03 </wgt>
<wgt id='scales0.50.5'>  0.181617713E+08 </wgt>
<wgt id='scales0.51.0'>  0.187803566E+08 </wgt>
<wgt id='scales1.00.5'>  0.147282592E+08 </wgt>
<wgt id='scales1.02.0'>  0.155478237E+08 </wgt>
<wgt id='scales2.01.0'>  0.126105572E+08 </wgt>
<wgt id='scales2.02.0'>  0.128738022E+08 </wgt>
</rwgt>
<scales uborns=' 0.128876733E+03'> </scales>
</event>
<event>
      5  10001  2.90308E+00  6.10587E+02  7.29735E-03  9.64476E-02
       2    -1     0     0   511     0  0.000000000E+00  0.000000000E+00  3.076383861E+03  3.076383861E+03  0.000000000E+00  0.00000E+00  9.000E+00
       1    -1     0     0   513     0  0.000000000E+00  0.000000000E+00 -1.446916872E+03  1.446916872E+03  0.000000000E+00  0.00000E+00  9.000E+00
      22     1     1     2     0     0 -7.482978247E+02 -1.021275480E+03  1.881694030E+03  2.267978321E+03  2.157918644E-05  0.00000E+00  9.000E+00
       1     1     1     2   511     0  1.084283877E+03  1.376392174E+03 -2.070565346E+02  1.764369392E+03  1.945121580E-05  0.00000E+00  9.000E+00
       2     1     1     2   513     0 -3.359860519E+02 -3.551166944E+02 -4.517050628E+01  4.909530205E+02  9.760613198E-06  0.00000E+00  9.000E+00
#rwgt            1          92   3.2400501082414076E-003        6024     1792377           0
<rwgt>
<wgt id='central'>  0.290307972E+01 </wgt>
<wgt id='sudakovwgt'>  0.500254529E-03 </wgt>
<wgt id='scales0.50.5'>  0.383297371E+01 </wgt>
<wgt id='scales0.51.0'>  0.336368958E+01 </wgt>
<wgt id='scales1.00.5'>  0.330810233E+01 </wgt>
<wgt id='scales1.02.0'>  0.256892884E+01 </wgt>
<wgt id='scales2.01.0'>  0.253179638E+01 </wgt>
<wgt id='scales2.02.0'>  0.224038082E+01 </wgt>
</rwgt>
<scales uborns=' 0.187527398E+04'> </scales>
</event>
<event>
      5  10001  7.72699E-01  5.51639E+03  7.29735E-03  7.61349E-02
       2    -1     0     0   512     0  0.000000000E+00  0.000000000E+00  2.347376228E+03  2.347376228E+03  0.000000000E+00  0.00000E+00  9.000E+00
       2    -1     0     0   513     0  0.000000000E+00  0.000000000E+00 -3.733362122E+03  3.733362122E+03  0.000000000E+00  0.00000E+00  9.000E+00
       2     1     1     2   512     0  3.930085603E+02 -7.226161485E+02  3.109115456E+02  8.793723988E+02  5.216520054E-05  0.00000E+00  9.000E+00
      22     1     1     2     0     0 -4.926480262E+02 -2.722300185E+02  1.631594006E+03  1.725951987E+03  2.157918644E-05  0.00000E+00  9.000E+00
       2     1     1     2   513     0  9.963946592E+01  9.948461670E+02 -3.328491446E+03  3.475413965E+03  1.057159917E-04  0.00000E+00  9.000E+00
#rwgt            1          97   2.7859652810171318E-002        6024     1794110           0
<rwgt>
<wgt id='central'>  0.772698856E+00 </wgt>
<wgt id='sudakovwgt'>  0.875684465E-03 </wgt>
<wgt id='scales0.50.5'>  0.104123340E+01 </wgt>
<wgt id='scales0.51.0'>  0.891290845E+00 </wgt>
<wgt id='scales1.00.5'>  0.902690752E+00 </wgt>
<wgt id='scales1.02.0'>  0.668078287E+00 </wgt>
<wgt id='scales2.01.0'>  0.676489182E+00 </wgt>
<wgt id='scales2.02.0'>  0.584894938E+00 </wgt>
</rwgt>
<scales uborns=' 0.249516566E+04'> </scales>
</event>
<event>
      5  10001  6.95045E+02  6.80273E+01  7.29735E-03  1.31852E-01
       2    -1     0     0   514     0  0.000000000E+00  0.000000000E+00  1.139640613E+03  1.139640613E+03  0.000000000E+00  0.00000E+00  9.000E+00
      21    -1     0     0   512   514  0.000000000E+00  0.000000000E+00 -5.380463066E+02  5.380463066E+02  0.000000000E+00  0.00000E+00  9.000E+00
       2     1     1     2   511     0 -1.299691579E+02  6.744913846E+02  5.971058095E+02  9.101461189E+02  7.629394531E-06  0.00000E+00  9.000E+00
      21     1     1     2   512   511  6.502108362E+01 -6.947263792E+02 -1.067456942E+01  6.978441299E+02  1.063905343E-05  0.00000E+00  9.000E+00
      22     1     1     2     0     0  6.494807433E+01  2.023499452E+01  1.516306652E+01  6.969667100E+01  7.348554138E-07  0.00000E+00  9.000E+00
#rwgt            1         182   6.5893397783045524E-003        6024     1794222           0
<rwgt>
<wgt id='central'>  0.695045004E+03 </wgt>
<wgt id='sudakovwgt'>  0.375605458E-01 </wgt>
<wgt id='scales0.50.5'>  0.897240710E+03 </wgt>
<wgt id='scales0.51.0'>  0.820127979E+03 </wgt>
<wgt id='scales1.00.5'>  0.760396774E+03 </wgt>
<wgt id='scales1.02.0'>  0.638514604E+03 </wgt>
<wgt id='scales2.01.0'>  0.596810708E+03 </wgt>
<wgt id='scales2.02.0'>  0.548270044E+03 </wgt>
</rwgt>
<scales uborns=' 0.691497930E+03'> </scales>
</event>
<event>
      5  10001  5.17778E+04  9.31065E+00  7.29735E-03  1.99412E-01
      21    -1     0     0   513   515  0.000000000E+00  0.000000000E+00  3.794160805E+02  3.794160805E+02  0.000000000E+00  0.00000E+00  9.000E+00
       1    -1     0     0   511     0  0.000000000E+00  0.000000000E+00 -7.833453467E+02  7.833453467E+02  0.000000000E+00  0.00000E+00  9.000E+00
       1     1     1     2   513     0 -2.181132826E+02  2.465994306E+02 -6.171645067E+02  6.994831746E+02  0.000000000E+00  0.00000E+00  9.000E+00
      21     1     1     2   511   515  2.203130656E+02 -2.556464802E+02  2.534153264E+02  4.220335263E+02  8.092194914E-06  0.00000E+00  9.000E+00
      22     1     1     2     0     0 -2.199783019E+00  9.047049554E+00 -4.018008588E+01  4.124472635E+01  4.768371582E-07  0.00000E+00  9.000E+00
#rwgt            1         186   4.0168661380842394E-003        6024     1795565           0
<rwgt>
<wgt id='central'>  0.517777840E+05 </wgt>
<wgt id='sudakovwgt'>  0.223742450E-01 </wgt>
<wgt id='scales0.50.5'>  0.672872585E+05 </wgt>
<wgt id='scales0.51.0'>  0.621161938E+05 </wgt>
<wgt id='scales1.00.5'>  0.560882114E+05 </wgt>
<wgt id='scales1.02.0'>  0.479743439E+05 </wgt>
<wgt id='scales2.01.0'>  0.438476674E+05 </wgt>
<wgt id='scales2.02.0'>  0.406267372E+05 </wgt>
</rwgt>
<scales uborns=' 0.333332289E+03'> </scales>
</event>
<event>
      5  10001  6.17306E+00  1.96104E+02  7.29735E-03  1.11960E-01
       2    -1     0     0   512     0  0.000000000E+00  0.000000000E+00  3.032235123E+03  3.032235123E+03  0.000000000E+00  0.00000E+00  9.000E+00
       2    -1     0     0   513     0  0.000000000E+00  0.000000000E+00 -1.265517924E+03  1.265517924E+03  0.000000000E+00  0.00000E+00  9.000E+00
       2     1     1     2   512     0  1.511669528E+03 -5.621574040E+02 -3.328639954E+02  1.646804223E+03  4.178791485E-05  0.00000E+00  9.000E+00
      22     1     1     2     0     0 -4.496608823E+02  1.670018536E+02  7.282511987E+02  8.720288623E+02  1.525878906E-05  0.00000E+00  9.000E+00
       2     1     1     2   513     0 -1.062008646E+03  3.951555504E+02  1.371329995E+03  1.778919961E+03  4.037096117E-05  0.00000E+00  9.000E+00
#rwgt            1          97   4.1537181052855613E-003        6024     1796017           0
<rwgt>
<wgt id='central'>  0.617305696E+01 </wgt>
<wgt id='sudakovwgt'>  0.209767791E-02 </wgt>
<wgt id='scales0.50.5'>  0.805341219E+01 </wgt>
<wgt id='scales0.51.0'>  0.717015268E+01 </wgt>
<wgt id='scales1.00.5'>  0.693349205E+01 </wgt>
<wgt id='scales1.02.0'>  0.553698928E+01 </wgt>
<wgt id='scales2.01.0'>  0.537216668E+01 </wgt>
<wgt id='scales2.02.0'>  0.481861983E+01 </wgt>
</rwgt>
<scales uborns=' 0.161471945E+04'> </scales>
</event>
<event>
      5  10001  1.31333E+04  2.76309E+00  7.29735E-03  3.08147E-01
       3    -1     0     0   512     0  0.000000000E+00  0.000000000E+00  5.412836963E+02  5.412836963E+02  0.000000000E+00  0.00000E+00  9.000E+00
       1    -1     0     0   511     0  0.000000000E+00  0.000000000E+00 -3.477248443E+02  3.477248443E+02  0.000000000E+00  0.00000E+00  9.000E+00
       3     1     1     2   511     0 -3.912766507E+02  1.482783512E+02  2.001344863E+02  4.638293862E+02  1.078959322E-05  0.00000E+00  9.000E+00
       1     1     1     2   512     0  3.937767943E+02 -1.494547605E+02 -3.714297007E+00  4.212014781E+02  1.265451669E-05  0.00000E+00  9.000E+00
      22     1     1     2     0     0 -2.500143611E+00  1.176409275E+00 -2.861337348E+00  3.977676241E+00  7.300048300E-08  0.00000E+00  9.000E+00
#rwgt            1          93   4.8436230422031101E-005        6024     1806913           0
<rwgt>
<wgt id='central'>  0.131333310E+05 </wgt>
<wgt id='sudakovwgt'>  0.745954840E-01 </wgt>
<wgt id='scales0.50.5'>  0.159736182E+05 </wgt>
<wgt id='scales0.51.0'>  0.156677467E+05 </wgt>
<wgt id='scales1.00.5'>  0.133896931E+05 </wgt>
<wgt id='scales1.02.0'>  0.128493284E+05 </wgt>
<wgt id='scales2.01.0'>  0.111737205E+05 </wgt>
<wgt id='scales2.02.0'>  0.109321195E+05 </wgt>
</rwgt>
<scales uborns=' 0.419805530E+03'> </scales>
</event>
<event>
      5  10001  5.37196E+01  3.90854E+01  7.29735E-03  1.45466E-01
       1    -1     0     0   511     0  0.000000000E+00  0.000000000E+00  1.778034847E+03  1.778034847E+03  0.000000000E+00  0.00000E+00  9.000E+00
       2    -1     0     0   513     0  0.000000000E+00  0.000000000E+00 -9.510818469E+02  9.510818469E+02  0.000000000E+00  0.00000E+00  9.000E+00
       1     1     1     2   513     0 -4.860764664E+02 -8.197872031E+02  9.864918193E+02  1.371673248E+03  3.051757812E-05  0.00000E+00  9.000E+00
       2     1     1     2   511     0  5.378409069E+02  9.364969953E+02 -3.437243771E+02  1.133333980E+03  1.618438983E-05  0.00000E+00  9.000E+00
      22     1     1     2     0     0 -5.176444049E+01 -1.167097922E+02  1.841855581E+02  2.241094659E+02  3.814697266E-06  0.00000E+00  9.000E+00
#rwgt            1          96   1.8252333854626786E-003        6024     1814594           0
<rwgt>
<wgt id='central'>  0.537195918E+02 </wgt>
<wgt id='sudakovwgt'>  0.538995399E+00 </wgt>
<wgt id='scales0.50.5'>  0.688428115E+02 </wgt>
<wgt id='scales0.51.0'>  0.628376252E+02 </wgt>
<wgt id='scales1.00.5'>  0.588534065E+02 </wgt>
<wgt id='scales1.02.0'>  0.493044200E+02 </wgt>
<wgt id='scales2.01.0'>  0.464691589E+02 </wgt>
<wgt id='scales2.02.0'>  0.426498881E+02 </wgt>
</rwgt>
<scales uborns=' 0.108151035E+04'> </scales>
</event>
<event>
      4  10001  1.58706E+03  8.94427E-01  7.29735E-03  7.50411E-01
       1    -1     0     0   511     0  0.000000000E+00  0.000000000E+00  1.136015493E+03  1.136015493E+03  0.000000000E+00  0.00000E+00  9.000E+00
      21    -1     0     0   514   511  0.000000000E+00  0.000000000E+00 -6.343943757E+02  6.343943757E+02  0.000000000E+00  0.00000E+00  9.000E+00
       1     1     1     2   512     0  2.697210553E+02  5.364530076E+02  8.765796177E+02  1.062507931E+03  1.078959322E-05  0.00000E+00  9.000E+00
      21     1     1     2   514   512 -2.697210553E+02 -5.364530076E+02 -3.749585002E+02  7.079019381E+02  7.629394531E-06  0.00000E+00  9.000E+00
#rwgt            1         181   3.2125418641808633E-003        6024     1827631           0
<rwgt>
<wgt id='central'>  0.158706499E+04 </wgt>
<wgt id='sudakovwgt'>  0.321566644E+01 </wgt>
<wgt id='scales0.50.5'>  0.209765981E+04 </wgt>
<wgt id='scales0.51.0'>  0.187822267E+04 </wgt>
<wgt id='scales1.00.5'>  0.177247992E+04 </wgt>
<wgt id='scales1.02.0'>  0.143083862E+04 </wgt>
<wgt id='scales2.01.0'>  0.135935705E+04 </wgt>
<wgt id='scales2.02.0'>  0.122554948E+04 </wgt>
</rwgt>
<scales uborns=' 0.600442568E+03'> </scales>
</event>
<event>
      4  10001  1.38877E+05  8.94427E-01  7.29735E-03  7.49595E-01
      -1    -1     0     0     0   513  0.000000000E+00  0.000000000E+00  2.899833589E+02  2.899833589E+02  0.000000000E+00  0.00000E+00  9.000E+00
       3    -1     0     0   513     0  0.000000000E+00  0.000000000E+00 -6.471505105E+02  6.471505105E+02  0.000000000E+00  0.00000E+00  9.000E+00
       3     1     1     2   511     0  1.116440292E+02 -2.595188421E+02 -5.337970453E+02  6.039484285E+02  1.321449896E-05  0.00000E+00  9.000E+00
      -1     1     1     2     0   511 -1.116440292E+02  2.595188421E+02  1.766298937E+02  3.331854409E+02  6.607249480E-06  0.00000E+00  9.000E+00
#rwgt            1         162   3.6671876696222063E-005        6024     1828685           0
<rwgt>
<wgt id='central'>  0.138877016E+06 </wgt>
<wgt id='sudakovwgt'>  0.408133856E+01 </wgt>
<wgt id='scales0.50.5'>  0.171339022E+06 </wgt>
<wgt id='scales0.51.0'>  0.167314353E+06 </wgt>
<wgt id='scales1.00.5'>  0.142217622E+06 </wgt>
<wgt id='scales1.02.0'>  0.135214526E+06 </wgt>
<wgt id='scales2.01.0'>  0.117194893E+06 </wgt>
<wgt id='scales2.02.0'>  0.114104221E+06 </wgt>
</rwgt>
<scales uborns=' 0.282514457E+03'> </scales>
</event>
<event>
      4  10001  4.57306E+03  8.94427E-01  7.29735E-03  7.43771E-01
      21    -1     0     0   512   513  0.000000000E+00  0.000000000E+00  3.085214874E+02  3.085214874E+02  0.000000000E+00  0.00000E+00  9.000E+00
      -3    -1     0     0     0   512  0.000000000E+00  0.000000000E+00 -2.019537351E+03  2.019537351E+03  0.000000000E+00  0.00000E+00  9.000E+00
      -3     1     1     2     0   511 -4.991615813E+02 -5.012507183E+01 -1.754206052E+03  1.824531085E+03  0.000000000E+00  0.00000E+00  9.000E+00
      21     1     1     2   511   513  4.991615813E+02  5.012507183E+01  4.319018760E+01  5.035277543E+02  7.979011789E-06  0.00000E+00  9.000E+00
#rwgt            1         198   1.9609909862123892E-004        6024     1829828           0
<rwgt>
<wgt id='central'>  0.457305560E+04 </wgt>
<wgt id='sudakovwgt'>  0.193645477E+01 </wgt>
<wgt id='scales0.50.5'>  0.633456736E+04 </wgt>
<wgt id='scales0.51.0'>  0.543333152E+04 </wgt>
<wgt id='scales1.00.5'>  0.533160116E+04 </wgt>
<wgt id='scales1.02.0'>  0.394718532E+04 </wgt>
<wgt id='scales2.01.0'>  0.390404016E+04 </wgt>
<wgt id='scales2.02.0'>  0.336972837E+04 </wgt>
</rwgt>
<scales uborns=' 0.501672011E+03'> </scales>
</event>
<event>
      5  10001  5.93866E+02  5.15161E+01  7.29735E-03  1.38339E-01
      21    -1     0     0   515   513  0.000000000E+00  0.000000000E+00  1.312353468E+03  1.312353468E+03  0.000000000E+00  0.00000E+00  9.000E+00
      -4    -1     0     0     0   514  0.000000000E+00  0.000000000E+00 -4.325071701E+02  4.325071701E+02  0.000000000E+00  0.00000E+00  9.000E+00
      -4     1     1     2     0   513 -5.377598223E+02  4.290717973E+02  5.789170181E+02  8.991291051E+02  2.157918644E-05  0.00000E+00  9.000E+00
      21     1     1     2   515   514  5.884040769E+02 -4.385092421E+02  3.035791569E+02  7.941473525E+02  2.697398305E-05  0.00000E+00  9.000E+00
      22     1     1     2     0     0 -5.064425457E+01  9.437444818E+00 -2.649876659E+00  5.158418102E+01  4.318766816E-07  0.00000E+00  9.000E+00
#rwgt            1         199   6.7596983617448838E-005        6024     1830475           0
<rwgt>
<wgt id='central'>  0.593866177E+03 </wgt>
<wgt id='sudakovwgt'>  0.529448234E-01 </wgt>
<wgt id='scales0.50.5'>  0.755198450E+03 </wgt>
<wgt id='scales0.51.0'>  0.700352143E+03 </wgt>
<wgt id='scales1.00.5'>  0.640373114E+03 </wgt>
<wgt id='scales1.02.0'>  0.551132195E+03 </wgt>
<wgt id='scales2.01.0'>  0.510170657E+03 </wgt>
<wgt id='scales2.02.0'>  0.473459457E+03 </wgt>
</rwgt>
<scales uborns=' 0.710440899E+03'> </scales>
</event>
<event>
      5  10001  1.51678E+01  1.12918E+02  7.29735E-03  1.21500E-01
       4    -1     0     0   512     0  0.000000000E+00  0.000000000E+00  1.516009386E+03  1.516009386E+03  0.000000000E+00  0.00000E+00  9.000E+00
       2    -1     0     0   511     0  0.000000000E+00  0.000000000E+00 -1.240693300E+03  1.240693300E+03  0.000000000E+00  0.00000E+00  9.000E+00
       4     1     1     2   511     0 -1.226883604E+03  4.569702751E+02  2.909246705E+02  1.341157102E+03  1.618438983E-05  0.00000E+00  9.000E+00
       2     1     1     2   512     0  1.272641958E+03 -4.503089133E+02 -6.020546445E+01  1.351303211E+03  1.355425873E-05  0.00000E+00  9.000E+00
      22     1     1     2     0     0 -4.575835406E+01 -6.661361766E+00  4.459688027E+01  6.424237260E+01  0.000000000E+00  0.00000E+00  9.000E+00
#rwgt            1          99   5.6662483200600552E-005        6024     1830939           0
<rwgt>
<wgt id='central'>  0.151677677E+02 </wgt>
<wgt id='sudakovwgt'>  0.398660139E-03 </wgt>
<wgt id='scales0.50.5'>  0.184939444E+02 </wgt>
<wgt id='scales0.51.0'>  0.176691944E+02 </wgt>
<wgt id='scales1.00.5'>  0.158757917E+02 </wgt>
<wgt id='scales1.02.0'>  0.144799586E+02 </wgt>
<wgt id='scales2.01.0'>  0.131669744E+02 </wgt>
<wgt id='scales2.02.0'>  0.125698680E+02 </wgt>
</rwgt>
<scales uborns=' 0.136160915E+04'> </scales>
</event>
<event>
      5  10001  2.87993E+01  1.79221E+03  7.29735E-03  8.52951E-02
       2    -1     0     0   513     0  0.000000000E+00  0.000000000E+00  2.674196246E+03  2.674196246E+03  0.000000000E+00  0.00000E+00  9.000E+00
      -2    -1     0     0     0   512  0.000000000E+00  0.000000000E+00 -6.281454810E+02  6.281454810E+02  0.000000000E+00  0.00000E+00  9.000E+00
       4     1     1     2   513     0 -1.085324930E+02  4.206797945E+02 -4.619501552E+02  6.341519829E+02  1.789251617E-05  0.00000E+00  9.000E+00
      -4     1     1     2     0   512  3.272503318E+00 -4.699081486E+02  6.267416921E+02  7.833450875E+02  1.321449896E-05  0.00000E+00  9.000E+00
      22     1     1     2     0     0  1.052599897E+02  4.922835412E+01  1.881259228E+03  1.884844656E+03  3.051757812E-05  0.00000E+00  9.000E+00
#rwgt            1          57   2.3507831340599006E-005        6024     1836143           0
<rwgt>
<wgt id='central'>  0.287993281E+02 </wgt>
<wgt id='sudakovwgt'>  0.400000000E-03 </wgt>
<wgt id='scales0.50.5'>  0.372565095E+02 </wgt>
<wgt id='scales0.51.0'>  0.336187502E+02 </wgt>
<wgt id='scales1.00.5'>  0.319155646E+02 </wgt>
<wgt id='scales1.02.0'>  0.261517964E+02 </wgt>
<wgt id='scales2.01.0'>  0.249557762E+02 </wgt>
<wgt id='scales2.02.0'>  0.226616056E+02 </wgt>
</rwgt>
<scales uborns=' 0.121019028E+04'> </scales>
</event>
<event>
      5  10001  7.40666E+03  1.43957E+01  7.29735E-03  1.79082E-01
      21    -1     0     0   514   515  0.000000000E+00  0.000000000E+00  1.716093353E+02  1.716093353E+02  0.000000000E+00  0.00000E+00  9.000E+00
       2    -1     0     0   515     0  0.000000000E+00  0.000000000E+00 -1.661854304E+03  1.661854304E+03  0.000000000E+00  0.00000E+00  9.000E+00
       2     1     1     2   511     0  2.245026804E+02 -3.738262639E+02 -1.138749929E+03  1.219384652E+03  0.000000000E+00  0.00000E+00  9.000E+00
      21     1     1     2   514   511 -2.252906945E+02  4.022419903E+02 -2.856412859E+02  5.423517862E+02  8.529922400E-06  0.00000E+00  9.000E+00
      22     1     1     2     0     0  7.880141560E-01 -2.841572636E+01 -6.585375441E+01  7.172720154E+01  0.000000000E+00  0.00000E+00  9.000E+00
#rwgt            1         187   1.5672865007730134E-002        6024     1836311           0
<rwgt>
<wgt id='central'>  0.740666466E+04 </wgt>
<wgt id='sudakovwgt'>  0.138812991E-02 </wgt>
<wgt id='scales0.50.5'>  0.946446365E+04 </wgt>
<wgt id='scales0.51.0'>  0.881622610E+04 </wgt>
<wgt id='scales1.00.5'>  0.795125528E+04 </wgt>
<wgt id='scales1.02.0'>  0.691364355E+04 </wgt>
<wgt id='scales2.01.0'>  0.631333653E+04 </wgt>
<wgt id='scales2.02.0'>  0.589309600E+04 </wgt>
</rwgt>
<scales uborns=' 0.462392313E+03'> </scales>
</event>
<event>
      5  10001  1.47323E+01  4.35522E+01  7.29735E-03  1.42585E-01
       2    -1     0     0   512     0  0.000000000E+00  0.000000000E+00  2.048201943E+03  2.048201943E+03  0.000000000E+00  0.00000E+00  9.000E+00
       2    -1     0     0   511     0  0.000000000E+00  0.000000000E+00 -1.986212969E+03  1.986212969E+03  0.000000000E+00  0.00000E+00  9.000E+00
       2     1     1     2   512     0  1.382077336E+03 -3.323434324E+00 -1.342624458E+03  1.926859944E+03  2.157918644E-05  0.00000E+00  9.000E+00
       2     1     1     2   511     0 -1.355703295E+03  3.798182158E+01  9.619285364E+02  1.662732856E+03  3.890243159E-05  0.00000E+00  9.000E+00
      22     1     1     2     0     0 -2.637404174E+01 -3.465838726E+01  4.426848959E+02  4.448221116E+02  0.000000000E+00  0.00000E+00  9.000E+00
#rwgt            1          97   4.9018726998609026E-003        6024     1837373           0
<rwgt>
<wgt id='central'>  0.147322903E+02 </wgt>
<wgt id='sudakovwgt'>  0.735419078E-01 </wgt>
<wgt id='scales0.50.5'>  0.190068838E+02 </wgt>
<wgt id='scales0.51.0'>  0.171602525E+02 </wgt>
<wgt id='scales1.00.5'>  0.163176570E+02 </wgt>
<wgt id='scales1.02.0'>  0.133870237E+02 </wgt>
<wgt id='scales2.01.0'>  0.127899569E+02 </wgt>
<wgt id='scales2.02.0'>  0.116220452E+02 </wgt>
</rwgt>
<scales uborns=' 0.136901020E+04'> </scales>
</event>
<event>
      4  10001  8.24274E+04  8.94427E-01  7.29735E-03  7.52633E-01
      21    -1     0     0   513   514  0.000000000E+00  0.000000000E+00  1.027208674E+02  1.027208674E+02  0.000000000E+00  0.00000E+00  9.000E+00
       1    -1     0     0   512     0  0.000000000E+00  0.000000000E+00 -1.045867554E+03  1.045867554E+03  0.000000000E+00  0.00000E+00  9.000E+00
       1     1     1     2   513     0 -2.454734259E+02  1.865637433E+02 -6.664399264E+02  7.343060729E+02  0.000000000E+00  0.00000E+00  9.000E+00
      21     1     1     2   512   514  2.454734259E+02 -1.865637433E+02 -2.767067599E+02  4.142823483E+02  5.394796609E-06  0.00000E+00  9.000E+00
#rwgt            1         186   5.5458823306747205E-003        6024     1866124           0
<rwgt>
<wgt id='central'>  0.824274119E+05 </wgt>
<wgt id='sudakovwgt'>  0.196959319E+01 </wgt>
<wgt id='scales0.50.5'>  0.103343314E+06 </wgt>
<wgt id='scales0.51.0'>  0.990809807E+05 </wgt>
<wgt id='scales1.00.5'>  0.859733182E+05 </wgt>
<wgt id='scales1.02.0'>  0.788944746E+05 </wgt>
<wgt id='scales2.01.0'>  0.696889340E+05 </wgt>
<wgt id='scales2.02.0'>  0.667019927E+05 </wgt>
</rwgt>
<scales uborns=' 0.308323261E+03'> </scales>
</event>
<event>
      5  10001  1.12072E+03  7.89396E+00  7.29735E-03  2.08431E-01
       2    -1     0     0   513     0  0.000000000E+00  0.000000000E+00  1.186503370E+03  1.186503370E+03  0.000000000E+00  0.00000E+00  9.000E+00
       1    -1     0     0   511     0  0.000000000E+00  0.000000000E+00 -9.682707320E+02  9.682707320E+02  0.000000000E+00  0.00000E+00  9.000E+00
       2     1     1     2   511     0 -4.725874584E+02 -3.599409303E+02  9.071661994E+02  1.084364741E+03  1.525878906E-05  0.00000E+00  9.000E+00
       1     1     1     2   513     0  5.020599429E+02  3.921439058E+02 -7.570985786E+02  9.894641412E+02  1.868812365E-05  0.00000E+00  9.000E+00
      22     1     1     2     0     0 -2.947248445E+01 -3.220297549E+01  6.816501734E+01  8.094521949E+01  9.536743164E-07  0.00000E+00  9.000E+00
#rwgt            1          92   1.9025760903900390E-003        6024     1867690           0
<rwgt>
<wgt id='central'>  0.112071975E+04 </wgt>
<wgt id='sudakovwgt'>  0.218307385E-02 </wgt>
<wgt id='scales0.50.5'>  0.142875500E+04 </wgt>
<wgt id='scales0.51.0'>  0.132466110E+04 </wgt>
<wgt id='scales1.00.5'>  0.120878789E+04 </wgt>
<wgt id='scales1.02.0'>  0.104367426E+04 </wgt>
<wgt id='scales2.01.0'>  0.960942341E+03 </wgt>
<wgt id='scales2.02.0'>  0.894880780E+03 </wgt>
</rwgt>
<scales uborns=' 0.637172352E+03'> </scales>
</event>
<event>
      4  10001  4.46068E+03  8.94427E-01  7.29735E-03  7.52123E-01
      21    -1     0     0   512   511  0.000000000E+00  0.000000000E+00  1.980901561E+02  1.980901561E+02  0.000000000E+00  0.00000E+00  9.000E+00
       2    -1     0     0   514     0  0.000000000E+00  0.000000000E+00 -2.766621930E+03  2.766621930E+03  0.000000000E+00  0.00000E+00  9.000E+00
       2     1     1     2   512     0  1.923107642E+02  4.656398874E+02 -2.370427741E+03  2.423371950E+03  4.315837288E-05  0.00000E+00  9.000E+00
      21     1     1     2   514   511 -1.923107642E+02 -4.656398874E+02 -1.981040332E+02  5.413401359E+02  6.607249480E-06  0.00000E+00  9.000E+00
#rwgt            1         187   1.8159149753069991E-002        6024     1895769           0
<rwgt>
<wgt id='central'>  0.446068280E+04 </wgt>
<wgt id='sudakovwgt'>  0.207014034E+02 </wgt>
<wgt id='scales0.50.5'>  0.590172385E+04 </wgt>
<wgt id='scales0.51.0'>  0.529931171E+04 </wgt>
<wgt id='scales1.00.5'>  0.496775864E+04 </wgt>
<wgt id='scales1.02.0'>  0.402771075E+04 </wgt>
<wgt id='scales2.01.0'>  0.380840163E+04 </wgt>
<wgt id='scales2.02.0'>  0.343874480E+04 </wgt>
</rwgt>
<scales uborns=' 0.503789574E+03'> </scales>
</event>
<event>
      5  10001  1.72445E+02  4.79730E+02  7.29735E-03  9.93652E-02
       1    -1     0     0   515     0  0.000000000E+00  0.000000000E+00  1.989474599E+03  1.989474599E+03  0.000000000E+00  0.00000E+00  9.000E+00
      21    -1     0     0   512   515  0.000000000E+00  0.000000000E+00 -7.860418807E+02  7.860418807E+02  0.000000000E+00  0.00000E+00  9.000E+00
      22     1     1     2     0     0  2.751507344E+02 -2.618360258E+02  7.459629383E+02  8.370942219E+02  1.078959322E-05  0.00000E+00  9.000E+00
      21     1     1     2   512   513 -2.149581517E+02  8.269269841E+02 -3.728755561E+02  9.322292767E+02  5.394796609E-06  0.00000E+00  9.000E+00
       1     1     1     2   513     0 -6.019258269E+01 -5.650909583E+02  8.303453363E+02  1.006192981E+03  1.078959322E-05  0.00000E+00  9.000E+00
#rwgt            1         181   3.3010419550248637E-003        6024     1901417           0
<rwgt>
<wgt id='central'>  0.172445000E+03 </wgt>
<wgt id='sudakovwgt'>  0.223451110E-01 </wgt>
<wgt id='scales0.50.5'>  0.233470125E+03 </wgt>
<wgt id='scales0.51.0'>  0.202501235E+03 </wgt>
<wgt id='scales1.00.5'>  0.198817335E+03 </wgt>
<wgt id='scales1.02.0'>  0.150993393E+03 </wgt>
<wgt id='scales2.01.0'>  0.148677469E+03 </wgt>
<wgt id='scales2.02.0'>  0.130182466E+03 </wgt>
</rwgt>
<scales uborns=' 0.880150733E+03'> </scales>
</event>
<event>
      5  10001  8.11515E+03  7.29438E+01  7.29735E-03  1.30321E-01
       2    -1     0     0   513     0  0.000000000E+00  0.000000000E+00  7.690924871E+02  7.690924871E+02  0.000000000E+00  0.00000E+00  9.000E+00
      21    -1     0     0   511   514  0.000000000E+00  0.000000000E+00 -2.697101237E+02  2.697101237E+02  0.000000000E+00  0.00000E+00  9.000E+00
       2     1     1     2   511     0  1.641720681E+01  2.461106889E+02  1.006438753E+02  2.664004233E+02  4.862803949E-06  0.00000E+00  9.000E+00
      21     1     1     2   513   514 -5.434739954E+01 -4.485815972E+02  2.353534778E+02  5.094804694E+02  7.136645101E-06  0.00000E+00  9.000E+00
      22     1     1     2     0     0  3.793019273E+01  2.024709083E+02  1.633850103E+02  2.629217181E+02  3.814697266E-06  0.00000E+00  9.000E+00
#rwgt            1         182   4.2372283291595824E-003        6024     1901524           0
<rwgt>
<wgt id='central'>  0.811514712E+04 </wgt>
<wgt id='sudakovwgt'>  0.131283828E-02 </wgt>
<wgt id='scales0.50.5'>  0.102290357E+05 </wgt>
<wgt id='scales0.51.0'>  0.966296476E+04 </wgt>
<wgt id='scales1.00.5'>  0.859054762E+04 </wgt>
<wgt id='scales1.02.0'>  0.767630570E+04 </wgt>
<wgt id='scales2.01.0'>  0.691519846E+04 </wgt>
<wgt id='scales2.02.0'>  0.654124413E+04 </wgt>
</rwgt>
<scales uborns=' 0.455314320E+03'> </scales>
</event>
<event>
      5  10001  9.62158E+02  4.61530E+01  7.29735E-03  1.41089E-01
       2    -1     0     0   511     0  0.000000000E+00  0.000000000E+00  1.401400336E+03  1.401400336E+03  0.000000000E+00  0.00000E+00  9.000E+00
      21    -1     0     0   512   515  0.000000000E+00  0.000000000E+00 -3.158537065E+02  3.158537065E+02  0.000000000E+00  0.00000E+00  9.000E+00
       2     1     1     2   512     0  1.021121738E+02  5.808212375E+02  5.931271608E+02  8.364090117E+02  0.000000000E+00  0.00000E+00  9.000E+00
      21     1     1     2   511   515 -1.441914940E+02 -6.315989287E+02  3.815846285E+02  7.518744725E+02  1.427329020E-05  0.00000E+00  9.000E+00
      22     1     1     2     0     0  4.207932021E+01  5.077769125E+01  1.108348405E+02  1.289705586E+02  2.336015456E-06  0.00000E+00  9.000E+00
#rwgt            1         182   8.0205774805955435E-003        6024     1902421           0
<rwgt>
<wgt id='central'>  0.962157931E+03 </wgt>
<wgt id='sudakovwgt'>  0.648903552E-03 </wgt>
<wgt id='scales0.50.5'>  0.123543027E+04 </wgt>
<wgt id='scales0.51.0'>  0.113662385E+04 </wgt>
<wgt id='scales1.00.5'>  0.104579815E+04 </wgt>
<wgt id='scales1.02.0'>  0.888793068E+03 </wgt>
<wgt id='scales2.01.0'>  0.825366216E+03 </wgt>
<wgt id='scales2.02.0'>  0.762431713E+03 </wgt>
</rwgt>
<scales uborns=' 0.654012897E+03'> </scales>
</event>
<event>
      5  10001  2.95203E+00  5.90642E+01  7.29735E-03  1.35069E-01
      21    -1     0     0   513   512  0.000000000E+00  0.000000000E+00  1.087111502E+03  1.087111502E+03  0.000000000E+00  0.00000E+00  9.000E+00
       2    -1     0     0   514     0  0.000000000E+00  0.000000000E+00 -3.596549506E+03  3.596549506E+03  0.000000000E+00  0.00000E+00  9.000E+00
      22     1     1     2     0     0  7.725672745E+02 -2.909440844E+02 -1.894843576E+02  8.470023469E+02  2.710851746E-05  0.00000E+00  9.000E+00
      21     1     1     2   514   512 -1.746991674E+03  6.630261610E+02 -2.019157201E+03  2.751105124E+03  0.000000000E+00  0.00000E+00  9.000E+00
       2     1     1     2   513     0  9.744243992E+02 -3.720820765E+02 -3.007964453E+02  1.085553538E+03  1.789251617E-05  0.00000E+00  9.000E+00
#rwgt            1         187   1.6345312793141183E-003        6024     1904002           0
<rwgt>
<wgt id='central'>  0.295202872E+01 </wgt>
<wgt id='sudakovwgt'>  0.313817274E-02 </wgt>
<wgt id='scales0.50.5'>  0.405900023E+01 </wgt>
<wgt id='scales0.51.0'>  0.342059451E+01 </wgt>
<wgt id='scales1.00.5'>  0.350298477E+01 </wgt>
<wgt id='scales1.02.0'>  0.251648476E+01 </wgt>
<wgt id='scales2.01.0'>  0.257436395E+01 </wgt>
<wgt id='scales2.02.0'>  0.219453990E+01 </wgt>
</rwgt>
<scales uborns=' 0.186891416E+04'> </scales>
</event>
<event>
      5  10001  6.42743E+02  7.10254E+00  7.29735E-03  2.14664E-01
       2    -1     0     0   513     0  0.000000000E+00  0.000000000E+00  1.074967852E+03  1.074967852E+03  0.000000000E+00  0.00000E+00  9.000E+00
       1    -1     0     0   511     0  0.000000000E+00  0.000000000E+00 -1.874147102E+03  1.874147102E+03  0.000000000E+00  0.00000E+00  9.000E+00
      22     1     1     2     0     0 -9.056013729E+01  2.411030813E+02  3.203628857E+02  4.110525670E+02  6.607249480E-06  0.00000E+00  9.000E+00
       1     1     1     2   513     0  2.482507977E+02 -6.554072241E+02 -1.681847055E+03  1.822030901E+03  2.157918644E-05  0.00000E+00  9.000E+00
       2     1     1     2   511     0 -1.576906604E+02  4.143041428E+02  5.623049192E+02  7.160314862E+02  2.018548058E-05  0.00000E+00  9.000E+00
#rwgt            1          92   2.0718011310191437E-003        6024     1904939           0
<rwgt>
<wgt id='central'>  0.642742772E+03 </wgt>
<wgt id='sudakovwgt'>  0.273124627E-02 </wgt>
<wgt id='scales0.50.5'>  0.839944054E+03 </wgt>
<wgt id='scales0.51.0'>  0.758204235E+03 </wgt>
<wgt id='scales1.00.5'>  0.712035275E+03 </wgt>
<wgt id='scales1.02.0'>  0.584040722E+03 </wgt>
<wgt id='scales2.01.0'>  0.552029477E+03 </wgt>
<wgt id='scales2.02.0'>  0.501612144E+03 </wgt>
</rwgt>
<scales uborns=' 0.700849922E+03'> </scales>
</event>
<event>
      5  10001  2.27622E+03  1.03347E+00  7.29735E-03  6.27824E-01
       1    -1     0     0   511     0  0.000000000E+00  0.000000000E+00  3.599467026E+02  3.599467026E+02  0.000000000E+00  0.00000E+00  9.000E+00
      21    -1     0     0   512   514  0.000000000E+00  0.000000000E+00 -9.463816937E+02  9.463816937E+02  0.000000000E+00  0.00000E+00  9.000E+00
       1     1     1     2   512     0 -4.454822296E+02  3.462258125E+02 -4.553256685E+02  7.250159960E+02  2.224331625E-05  0.00000E+00  9.000E+00
      21     1     1     2   511   514  4.464535193E+02 -3.465788855E+02 -1.313519913E+02  5.802508202E+02  8.946258087E-06  0.00000E+00  9.000E+00
      22     1     1     2     0     0 -9.712896465E-01  3.530730549E-01  2.426687427E-01  1.061580086E+00  2.456997700E-08  0.00000E+00  9.000E+00
#rwgt            1         181   5.2824287887280055E-004        6024     1936926           0
<rwgt>
<wgt id='central'>  0.227621727E+04 </wgt>
<wgt id='sudakovwgt'>  0.611594128E-01 </wgt>
<wgt id='scales0.50.5'>  0.295727752E+04 </wgt>
<wgt id='scales0.51.0'>  0.269737559E+04 </wgt>
<wgt id='scales1.00.5'>  0.249554206E+04 </wgt>
<wgt id='scales1.02.0'>  0.208731850E+04 </wgt>
<wgt id='scales2.01.0'>  0.194747556E+04 </wgt>
<wgt id='scales2.02.0'>  0.178585627E+04 </wgt>
</rwgt>
<scales uborns=' 0.564696118E+03'> </scales>
</event>
<event>
      5  10001  2.89358E+06  3.78545E+01  7.29735E-03  1.46341E-01
      21    -1     0     0   512   515  0.000000000E+00  0.000000000E+00  1.870733670E+01  1.870733670E+01  0.000000000E+00  0.00000E+00  9.000E+00
       2    -1     0     0   515     0  0.000000000E+00  0.000000000E+00 -2.552811391E+03  2.552811391E+03  0.000000000E+00  0.00000E+00  9.000E+00
       2     1     1     2   513     0  1.341343331E+02 -6.755491707E+01 -1.558997783E+03  1.566215111E+03  2.157918644E-05  0.00000E+00  9.000E+00
      21     1     1     2   512   513 -1.556776786E+02  5.592540182E+01 -4.469288229E+02  4.765590865E+02  5.394796609E-06  0.00000E+00  9.000E+00
      22     1     1     2     0     0  2.154334549E+01  1.162951524E+01 -5.281774478E+02  5.287445297E+02  7.629394531E-06  0.00000E+00  9.000E+00
#rwgt            1         187   8.1050871233966801E-002        6024     1937762           0
<rwgt>
<wgt id='central'>  0.289358080E+07 </wgt>
<wgt id='sudakovwgt'>  0.462966996E-03 </wgt>
<wgt id='scales0.50.5'>  0.360625397E+07 </wgt>
<wgt id='scales0.51.0'>  0.353662040E+07 </wgt>
<wgt id='scales1.00.5'>  0.295055256E+07 </wgt>
<wgt id='scales1.02.0'>  0.281790404E+07 </wgt>
<wgt id='scales2.01.0'>  0.241319014E+07 </wgt>
<wgt id='scales2.02.0'>  0.235007785E+07 </wgt>
</rwgt>
<scales uborns=' 0.170040093E+03'> </scales>
</event>
<event>
      4  10001  5.12081E+01  8.94427E-01  7.29735E-03  7.48085E-01
       1    -1     0     0   513     0  0.000000000E+00  0.000000000E+00  1.682063596E+03  1.682063596E+03  0.000000000E+00  0.00000E+00  9.000E+00
      21    -1     0     0   511   514  0.000000000E+00  0.000000000E+00 -2.054193014E+03  2.054193014E+03  0.000000000E+00  0.00000E+00  9.000E+00
       1     1     1     2   511     0 -7.093435674E+02 -8.286815033E+02  1.326581999E+03  1.717469397E+03  2.642899792E-05  0.00000E+00  9.000E+00
      21     1     1     2   513   514  7.093435674E+02  8.286815033E+02 -1.698711417E+03  2.018787212E+03  3.051757812E-05  0.00000E+00  9.000E+00
#rwgt            1         181   1.7695641968408001E-003        6024     1938104           0
<rwgt>
<wgt id='central'>  0.512081432E+02 </wgt>
<wgt id='sudakovwgt'>  0.220586729E+01 </wgt>
<wgt id='scales0.50.5'>  0.717409712E+02 </wgt>
<wgt id='scales0.51.0'>  0.598903953E+02 </wgt>
<wgt id='scales1.00.5'>  0.613407009E+02 </wgt>
<wgt id='scales1.02.0'>  0.433129300E+02 </wgt>
<wgt id='scales2.01.0'>  0.443025853E+02 </wgt>
<wgt id='scales2.02.0'>  0.374720948E+02 </wgt>
</rwgt>
<scales uborns=' 0.109081682E+04'> </scales>
</event>
<event>
      5  10001  1.31895E+06  6.87576E+01  7.29735E-03  1.31616E-01
      -2    -1     0     0     0   512  0.000000000E+00  0.000000000E+00  1.191900412E+02  1.191900412E+02  0.000000000E+00  0.00000E+00  9.000E+00
       1    -1     0     0   512     0  0.000000000E+00  0.000000000E+00 -1.525133882E+03  1.525133882E+03  0.000000000E+00  0.00000E+00  9.000E+00
       1     1     1     2   513     0 -1.831288100E+02  1.268887413E+00 -1.355644363E+03  1.367958117E+03  1.525878906E-05  0.00000E+00  9.000E+00
      -2     1     1     2     0   513  2.229409106E+02 -1.112879782E+01 -1.759998906E+01  2.239112757E+02  7.088693975E-06  0.00000E+00  9.000E+00
      22     1     1     2     0     0 -3.981210061E+01  9.859910411E+00 -3.269948841E+01  5.245453012E+01  4.768371582E-07  0.00000E+00  9.000E+00
#rwgt            1         165   2.0990914546718594E-004        6024     1939382           0
<rwgt>
<wgt id='central'>  0.131895171E+07 </wgt>
<wgt id='sudakovwgt'>  0.470785617E-03 </wgt>
<wgt id='scales0.50.5'>  0.167453135E+07 </wgt>
<wgt id='scales0.51.0'>  0.160572874E+07 </wgt>
<wgt id='scales1.00.5'>  0.137546466E+07 </wgt>
<wgt id='scales1.02.0'>  0.126404638E+07 </wgt>
<wgt id='scales2.01.0'>  0.110351232E+07 </wgt>
<wgt id='scales2.02.0'>  0.105757667E+07 </wgt>
</rwgt>
<scales uborns=' 0.193881615E+03'> </scales>
</event>
<event>
      5  10001  5.17889E+03  3.02381E+02  7.29735E-03  1.05480E-01
      -4    -1     0     0     0   511  0.000000000E+00  0.000000000E+00  2.388616518E+02  2.388616518E+02  0.000000000E+00  0.00000E+00  9.000E+00
       2    -1     0     0   511     0  0.000000000E+00  0.000000000E+00 -1.201219793E+03  1.201219793E+03  0.000000000E+00  0.00000E+00  9.000E+00
       2     1     1     2   512     0  3.123974393E+02  3.455570265E+02 -7.286102652E+02  8.647975123E+02  0.000000000E+00  0.00000E+00  9.000E+00
      -4     1     1     2     0   512 -1.527452660E+02 -1.570763291E+02 -2.441635132E+02  3.280547373E+02  3.814697266E-06  0.00000E+00  9.000E+00
      22     1     1     2     0     0 -1.596521733E+02 -1.884806975E+02  1.041563679E+01  2.472291957E+02  2.061321314E-06  0.00000E+00  9.000E+00
#rwgt            1         174   1.9712533856863353E-004        6024     1954780           0
<rwgt>
<wgt id='central'>  0.517888657E+04 </wgt>
<wgt id='sudakovwgt'>  0.727098727E-03 </wgt>
<wgt id='scales0.50.5'>  0.617390194E+04 </wgt>
<wgt id='scales0.51.0'>  0.615603614E+04 </wgt>
<wgt id='scales1.00.5'>  0.519391997E+04 </wgt>
<wgt id='scales1.02.0'>  0.513090721E+04 </wgt>
<wgt id='scales2.01.0'>  0.441948951E+04 </wgt>
<wgt id='scales2.02.0'>  0.437854263E+04 </wgt>
</rwgt>
<scales uborns=' 0.491220159E+03'> </scales>
</event>
<event>
      5  10001  3.15560E+02  1.74977E+02  7.29735E-03  1.13803E-01
       2    -1     0     0   512     0  0.000000000E+00  0.000000000E+00  2.739230522E+03  2.739230522E+03  0.000000000E+00  0.00000E+00  9.000E+00
      21    -1     0     0   513   514  0.000000000E+00  0.000000000E+00 -6.066970509E+02  6.066970509E+02  0.000000000E+00  0.00000E+00  9.000E+00
      22     1     1     2     0     0 -8.961334294E+01  3.450840437E+02  1.373425980E+03  1.418947664E+03  0.000000000E+00  0.00000E+00  9.000E+00
      21     1     1     2   512   514  1.570108003E+02 -7.721764340E+02 -2.520088299E+02  8.272951631E+02  2.697398305E-06  0.00000E+00  9.000E+00
       2     1     1     2   513     0 -6.739745737E+01  4.270923903E+02  1.011116321E+03  1.099684746E+03  1.525878906E-05  0.00000E+00  9.000E+00
#rwgt            1         182   1.0605576610870800E-002        6024     1957166           0
<rwgt>
<wgt id='central'>  0.315559841E+03 </wgt>
<wgt id='sudakovwgt'>  0.571476202E-03 </wgt>
<wgt id='scales0.50.5'>  0.427590315E+03 </wgt>
<wgt id='scales0.51.0'>  0.371325550E+03 </wgt>
<wgt id='scales1.00.5'>  0.363374941E+03 </wgt>
<wgt id='scales1.02.0'>  0.276643767E+03 </wgt>
<wgt id='scales2.01.0'>  0.271591990E+03 </wgt>
<wgt id='scales2.02.0'>  0.238098083E+03 </wgt>
</rwgt>
<scales uborns=' 0.792335170E+03'> </scales>
</event>
<event>
      5  10001  8.28462E+01  2.44782E+00  7.29735E-03  3.26533E-01
       1    -1     0     0   513     0  0.000000000E+00  0.000000000E+00  3.809436826E+03  3.809436826E+03  0.000000000E+00  0.00000E+00  9.000E+00
       1    -1     0     0   511     0  0.000000000E+00  0.000000000E+00 -4.782689545E+02  4.782689545E+02  0.000000000E+00  0.00000E+00  9.000E+00
       1     1     1     2   511     0  6.513226217E+02 -7.604681516E+02  3.103306412E+03  3.260834809E+03  4.315837288E-05  0.00000E+00  9.000E+00
       1     1     1     2   513     0 -4.086674978E+02  4.790654327E+02  1.423700147E+02  6.455865811E+02  6.325959759E-06  0.00000E+00  9.000E+00
      22     1     1     2     0     0 -2.426551239E+02  2.814027189E+02  8.549144542E+01  3.812843907E+02  1.144409180E-05  0.00000E+00  9.000E+00
#rwgt            1          91   7.7886792080694863E-005        6024     1958069           0
<rwgt>
<wgt id='central'>  0.828462408E+02 </wgt>
<wgt id='sudakovwgt'>  0.119216724E-02 </wgt>
<wgt id='scales0.50.5'>  0.111694149E+03 </wgt>
<wgt id='scales0.51.0'>  0.970469970E+02 </wgt>
<wgt id='scales1.00.5'>  0.953500479E+02 </wgt>
<wgt id='scales1.02.0'>  0.726912479E+02 </wgt>
<wgt id='scales2.01.0'>  0.715771610E+02 </wgt>
<wgt id='scales2.02.0'>  0.628035222E+02 </wgt>
</rwgt>
<scales uborns=' 0.100126708E+04'> </scales>
</event>
<event>
      5  10001  6.19165E+00  4.04264E+02  7.29735E-03  1.01547E-01
       2    -1     0     0   511     0  0.000000000E+00  0.000000000E+00  1.418482806E+03  1.418482806E+03  0.000000000E+00  0.00000E+00  9.000E+00
      21    -1     0     0   512   514  0.000000000E+00  0.000000000E+00 -2.002631810E+03  2.002631810E+03  0.000000000E+00  0.00000E+00  9.000E+00
      22     1     1     2     0     0  8.185319865E+01 -3.713622147E+02  9.739448827E+01  3.925500312E+02  6.180515955E-06  0.00000E+00  9.000E+00
      21     1     1     2   511   514  7.368843185E+00  1.606219432E+03 -7.818787909E+02  1.786429290E+03  1.078959322E-05  0.00000E+00  9.000E+00
       2     1     1     2   512     0 -8.922204184E+01 -1.234857217E+03  1.003352987E+02  1.242135295E+03  1.578611885E-05  0.00000E+00  9.000E+00
#rwgt            1         182   2.6139778450862991E-003        6024     1966253           0
<rwgt>
<wgt id='central'>  0.619165479E+01 </wgt>
<wgt id='sudakovwgt'>  0.482268495E-03 </wgt>
<wgt id='scales0.50.5'>  0.837892246E+01 </wgt>
<wgt id='scales0.51.0'>  0.719181571E+01 </wgt>
<wgt id='scales1.00.5'>  0.721366583E+01 </wgt>
<wgt id='scales1.02.0'>  0.537124794E+01 </wgt>
<wgt id='scales2.01.0'>  0.538829958E+01 </wgt>
<wgt id='scales2.02.0'>  0.467434254E+01 </wgt>
</rwgt>
<scales uborns=' 0.161377831E+04'> </scales>
</event>
<event>
      5  10001  9.66875E+01  1.01830E+02  7.29735E-03  1.23475E-01
       2    -1     0     0   511     0  0.000000000E+00  0.000000000E+00  9.467279775E+02  9.467279775E+02  0.000000000E+00  0.00000E+00  9.000E+00
      -3    -1     0     0     0   511  0.000000000E+00  0.000000000E+00 -1.047951186E+03  1.047951186E+03  0.000000000E+00  0.00000E+00  9.000E+00
       2     1     1     2   512     0 -9.455715347E+02  6.592679467E+01 -2.510001002E+02  9.805370568E+02  1.945121580E-05  0.00000E+00  9.000E+00
      -3     1     1     2     0   512  9.109458369E+02 -1.329044975E+02  1.052745976E+02  9.265898036E+02  1.695288547E-05  0.00000E+00  9.000E+00
      22     1     1     2     0     0  3.462569785E+01  6.697770286E+01  4.450229394E+01  8.755230322E+01  1.907348633E-06  0.00000E+00  9.000E+00
#rwgt            1         146   4.2617622890467757E-005        6024     1966699           0
<rwgt>
<wgt id='central'>  0.966874561E+02 </wgt>
<wgt id='sudakovwgt'>  0.289553382E-04 </wgt>
<wgt id='scales0.50.5'>  0.120700230E+03 </wgt>
<wgt id='scales0.51.0'>  0.113319135E+03 </wgt>
<wgt id='scales1.00.5'>  0.102985286E+03 </wgt>
<wgt id='scales1.02.0'>  0.909688529E+02 </wgt>
<wgt id='scales2.01.0'>  0.834991652E+02 </wgt>
<wgt id='scales2.02.0'>  0.785605510E+02 </wgt>
</rwgt>
<scales uborns=' 0.974283071E+03'> </scales>
</event>
<event>
      5  10001  1.66179E+02  3.66870E+02  7.29735E-03  1.02828E-01
      21    -1     0     0   513   514  0.000000000E+00  0.000000000E+00  5.761221721E+02  5.761221721E+02  0.000000000E+00  0.00000E+00  9.000E+00
       2    -1     0     0   512     0  0.000000000E+00  0.000000000E+00 -1.550728197E+03  1.550728197E+03  0.000000000E+00  0.00000E+00  9.000E+00
       2     1     1     2   513     0 -2.339602161E+02  2.644693986E+02 -1.637491561E+02  3.892238837E+02  6.607249480E-06  0.00000E+00  9.000E+00
      21     1     1     2   512   514  7.120327999E+02 -4.939704116E+02 -8.394999659E+02  1.206547831E+03  1.525878906E-05  0.00000E+00  9.000E+00
      22     1     1     2     0     0 -4.780725838E+02  2.295010130E+02  2.864309702E+01  5.310786546E+02  2.036211917E-05  0.00000E+00  9.000E+00
#rwgt            1         187   2.1213093172384296E-003        6024     1969381           0
<rwgt>
<wgt id='central'>  0.166178793E+03 </wgt>
<wgt id='sudakovwgt'>  0.363662233E+00 </wgt>
<wgt id='scales0.50.5'>  0.216929866E+03 </wgt>
<wgt id='scales0.51.0'>  0.195118671E+03 </wgt>
<wgt id='scales1.00.5'>  0.184755195E+03 </wgt>
<wgt id='scales1.02.0'>  0.150430095E+03 </wgt>
<wgt id='scales2.01.0'>  0.143290320E+03 </wgt>
<wgt id='scales2.02.0'>  0.129710592E+03 </wgt>
</rwgt>
<scales uborns=' 0.885863446E+03'> </scales>
</event>
<event>
      4  10001  2.29389E+05  8.94427E-01  7.29735E-03  7.51261E-01
       1    -1     0     0   515     0  0.000000000E+00  0.000000000E+00  1.156937354E+03  1.156937354E+03  0.000000000E+00  0.00000E+00  9.000E+00
      21    -1     0     0   511   513  0.000000000E+00  0.000000000E+00 -2.624419728E+02  2.624419728E+02  0.000000000E+00  0.00000E+00  9.000E+00
       1     1     1     2   511     0 -2.218216171E+02  1.351426872E+02  1.073141395E+03  1.104128991E+03  1.525878906E-05  0.00000E+00  9.000E+00
      21     1     1     2   515   513  2.218216171E+02 -1.351426872E+02 -1.786460139E+02  3.152503355E+02  6.325959759E-06  0.00000E+00  9.000E+00
#rwgt            1         181   4.3068199723645716E-003        6024     1970046           0
<rwgt>
<wgt id='central'>  0.229389186E+06 </wgt>
<wgt id='sudakovwgt'>  0.149057045E+01 </wgt>
<wgt id='scales0.50.5'>  0.301237267E+06 </wgt>
<wgt id='scales0.51.0'>  0.276977983E+06 </wgt>
<wgt id='scales1.00.5'>  0.249480174E+06 </wgt>
<wgt id='scales1.02.0'>  0.211625535E+06 </wgt>
<wgt id='scales2.01.0'>  0.193219488E+06 </wgt>
<wgt id='scales2.02.0'>  0.178256924E+06 </wgt>
</rwgt>
<scales uborns=' 0.259746753E+03'> </scales>
</event>
<event>
      5  10001  3.87820E+02  4.99758E+00  7.29735E-03  2.42587E-01
       2    -1     0     0   511     0  0.000000000E+00  0.000000000E+00  2.425920306E+03  2.425920306E+03  0.000000000E+00  0.00000E+00  9.000E+00
      21    -1     0     0   512   514  0.000000000E+00  0.000000000E+00 -2.471161272E+02  2.471161272E+02  0.000000000E+00  0.00000E+00  9.000E+00
       2     1     1     2   512     0 -4.322687977E+02  6.276618061E+02  1.229007364E+03  1.446124046E+03  1.525878906E-05  0.00000E+00  9.000E+00
      21     1     1     2   511   514  4.357466094E+02 -6.312507662E+02  9.251865077E+02  1.201799780E+03  1.078959322E-05  0.00000E+00  9.000E+00
      22     1     1     2     0     0 -3.477811656E+00  3.588960062E+00  2.461030747E+01  2.511260723E+01  3.371747881E-07  0.00000E+00  9.000E+00
#rwgt            1         182   1.1165197303512776E-002        6024     1971210           0
<rwgt>
<wgt id='central'>  0.387820093E+03 </wgt>
<wgt id='sudakovwgt'>  0.165679326E+00 </wgt>
<wgt id='scales0.50.5'>  0.505941082E+03 </wgt>
<wgt id='scales0.51.0'>  0.456680483E+03 </wgt>
<wgt id='scales1.00.5'>  0.429652849E+03 </wgt>
<wgt id='scales1.02.0'>  0.351959153E+03 </wgt>
<wgt id='scales2.01.0'>  0.333582527E+03 </wgt>
<wgt id='scales2.02.0'>  0.302736897E+03 </wgt>
</rwgt>
<scales uborns=' 0.764573027E+03'> </scales>
</event>
<event>
      5  10001  2.76199E+02  4.11968E+02  7.29735E-03  1.01302E-01
       3    -1     0     0   512     0  0.000000000E+00  0.000000000E+00  5.158020167E+02  5.158020167E+02  0.000000000E+00  0.00000E+00  9.000E+00
       2    -1     0     0   513     0  0.000000000E+00  0.000000000E+00 -1.332232520E+03  1.332232520E+03  0.000000000E+00  0.00000E+00  9.000E+00
       3     1     1     2   513     0  3.841543970E+02 -5.562688925E+02  6.765863457E+00  6.760587684E+02  1.700624032E-05  0.00000E+00  9.000E+00
       2     1     1     2   512     0 -2.678642315E+02  5.926271710E+02 -4.814745799E+02  8.091822918E+02  0.000000000E+00  0.00000E+00  9.000E+00
      22     1     1     2     0     0 -1.162901655E+02 -3.635827850E+01 -3.417217871E+02  3.627934768E+02  5.394796609E-06  0.00000E+00  9.000E+00
#rwgt            1          98   2.2052273589268440E-004        6024     1977917           0
<rwgt>
<wgt id='central'>  0.276198798E+03 </wgt>
<wgt id='sudakovwgt'>  0.109029475E-02 </wgt>
<wgt id='scales0.50.5'>  0.342086161E+03 </wgt>
<wgt id='scales0.51.0'>  0.324859916E+03 </wgt>
<wgt id='scales1.00.5'>  0.290844918E+03 </wgt>
<wgt id='scales1.02.0'>  0.262571026E+03 </wgt>
<wgt id='scales2.01.0'>  0.237807516E+03 </wgt>
<wgt id='scales2.02.0'>  0.226073822E+03 </wgt>
</rwgt>
<scales uborns=' 0.810848107E+03'> </scales>
</event>
<event>
      5  10001  4.34276E+05  3.70213E+01  7.29735E-03  1.46956E-01
      21    -1     0     0   513   514  0.000000000E+00  0.000000000E+00  8.167731813E+02  8.167731813E+02  0.000000000E+00  0.00000E+00  9.000E+00
      -4    -1     0     0     0   511  0.000000000E+00  0.000000000E+00 -1.502680511E+02  1.502680511E+02  0.000000000E+00  0.00000E+00  9.000E+00
      22     1     1     2     0     0 -2.178448350E+02  1.039673054E+02 -3.826172055E+00  2.414129498E+02  7.188725421E-06  0.00000E+00  9.000E+00
      21     1     1     2   513   511  2.075782054E+02 -8.690501448E+01  6.688134364E+02  7.056575697E+02  7.629394531E-06  0.00000E+00  9.000E+00
      -4     1     1     2     0   514  1.026662963E+01 -1.706229095E+01  1.517865860E+00  1.997071288E+01  5.148992700E-07  0.00000E+00  9.000E+00
#rwgt            1         199   3.8387275289503045E-004        6024     1978783           0
<rwgt>
<wgt id='central'>  0.434275942E+06 </wgt>
<wgt id='sudakovwgt'>  0.739945394E-03 </wgt>
<wgt id='scales0.50.5'>  0.537522744E+06 </wgt>
<wgt id='scales0.51.0'>  0.525903566E+06 </wgt>
<wgt id='scales1.00.5'>  0.443870783E+06 </wgt>
<wgt id='scales1.02.0'>  0.421518019E+06 </wgt>
<wgt id='scales2.01.0'>  0.364923088E+06 </wgt>
<wgt id='scales2.02.0'>  0.354202528E+06 </wgt>
</rwgt>
<scales uborns=' 0.233440343E+03'> </scales>
</event>
<event>
      5  10001  1.90321E+02  1.40247E+02  7.29735E-03  1.17562E-01
       2    -1     0     0   511     0  0.000000000E+00  0.000000000E+00  2.384868560E+03  2.384868560E+03  0.000000000E+00  0.00000E+00  9.000E+00
      21    -1     0     0   512   515  0.000000000E+00  0.000000000E+00 -3.170050034E+02  3.170050034E+02  0.000000000E+00  0.00000E+00  9.000E+00
      22     1     1     2     0     0 -2.662852054E+02 -2.754737196E+02  6.295425186E+02  7.369649677E+02  7.629394531E-06  0.00000E+00  9.000E+00
      21     1     1     2   511   515  5.830171026E+02  6.328284252E+02  8.938314919E+02  1.240691538E+03  1.525878906E-05  0.00000E+00  9.000E+00
       2     1     1     2   512     0 -3.167318971E+02 -3.573547056E+02  5.444895462E+02  7.242170573E+02  7.629394531E-06  0.00000E+00  9.000E+00
#rwgt            1         182   9.1429107373694231E-003        6024     1979071           0
<rwgt>
<wgt id='central'>  0.190321327E+03 </wgt>
<wgt id='sudakovwgt'>  0.154382365E-02 </wgt>
<wgt id='scales0.50.5'>  0.249525259E+03 </wgt>
<wgt id='scales0.51.0'>  0.223567648E+03 </wgt>
<wgt id='scales1.00.5'>  0.212418466E+03 </wgt>
<wgt id='scales1.02.0'>  0.171590928E+03 </wgt>
<wgt id='scales2.01.0'>  0.164043133E+03 </wgt>
<wgt id='scales2.02.0'>  0.147899147E+03 </wgt>
</rwgt>
<scales uborns=' 0.865122879E+03'> </scales>
</event>
<event>
      5  10001  3.29865E+05  5.78941E+00  7.29735E-03  2.27908E-01
       2    -1     0     0   511     0  0.000000000E+00  0.000000000E+00  7.209919516E+02  7.209919516E+02  0.000000000E+00  0.00000E+00  9.000E+00
      -2    -1     0     0     0   511  0.000000000E+00  0.000000000E+00 -1.313917341E+02  1.313917341E+02  0.000000000E+00  0.00000E+00  9.000E+00
       2     1     1     2   512     0  1.654740626E+02  5.496017007E+01  4.048821301E+02  4.408308349E+02  5.394796609E-06  0.00000E+00  9.000E+00
      -2     1     1     2     0   512 -2.313046344E+02 -7.884079991E+01  3.578589734E+01  2.469784121E+02  1.168007728E-06  0.00000E+00  9.000E+00
      22     1     1     2     0     0  6.583057177E+01  2.388062984E+01  1.489321900E+02  1.645744387E+02  2.697398305E-06  0.00000E+00  9.000E+00
#rwgt            1          47   2.4221207279902929E-004        6024     1979956           0
<rwgt>
<wgt id='central'>  0.329864761E+06 </wgt>
<wgt id='sudakovwgt'>  0.331458753E-02 </wgt>
<wgt id='scales0.50.5'>  0.399159749E+06 </wgt>
<wgt id='scales0.51.0'>  0.398956508E+06 </wgt>
<wgt id='scales1.00.5'>  0.330033044E+06 </wgt>
<wgt id='scales1.02.0'>  0.328313474E+06 </wgt>
<wgt id='scales2.01.0'>  0.277475478E+06 </wgt>
<wgt id='scales2.02.0'>  0.276170367E+06 </wgt>
</rwgt>
<scales uborns=' 0.244428531E+03'> </scales>
</event>
<event>
      4  10001  4.97544E+03  8.94427E-01  7.29735E-03  7.50538E-01
       1    -1     0     0   511     0  0.000000000E+00  0.000000000E+00  1.531462238E+03  1.531462238E+03  0.000000000E+00  0.00000E+00  9.000E+00
      21    -1     0     0   512   511  0.000000000E+00  0.000000000E+00 -3.910691017E+02  3.910691017E+02  0.000000000E+00  0.00000E+00  9.000E+00
       1     1     1     2   513     0  4.902981364E+02 -6.480448374E+01  1.309561280E+03  1.399836644E+03  2.642899792E-05  0.00000E+00  9.000E+00
      21     1     1     2   512   513 -4.902981364E+02  6.480448374E+01 -1.691681440E+02  5.226946954E+02  1.907348633E-06  0.00000E+00  9.000E+00
#rwgt            1         181   4.1648823355700500E-003        6024     1994084           0
<rwgt>
<wgt id='central'>  0.497544161E+04 </wgt>
<wgt id='sudakovwgt'>  0.239871039E+01 </wgt>
<wgt id='scales0.50.5'>  0.659473812E+04 </wgt>
<wgt id='scales0.51.0'>  0.591329798E+04 </wgt>
<wgt id='scales1.00.5'>  0.554880270E+04 </wgt>
<wgt id='scales1.02.0'>  0.449004708E+04 </wgt>
<wgt id='scales2.01.0'>  0.424641457E+04 </wgt>
<wgt id='scales2.02.0'>  0.383214376E+04 </wgt>
</rwgt>
<scales uborns=' 0.494562315E+03'> </scales>
</event>
<event>
      5  10001  1.67515E+01  3.36262E+01  7.29735E-03  1.49675E-01
      21    -1     0     0   514   515  0.000000000E+00  0.000000000E+00  2.123125407E+03  2.123125407E+03  0.000000000E+00  0.00000E+00  9.000E+00
       1    -1     0     0   513     0  0.000000000E+00  0.000000000E+00 -1.286176006E+03  1.286176006E+03  0.000000000E+00  0.00000E+00  9.000E+00
       1     1     1     2   514     0  8.304879984E+02  6.999530274E+02 -4.769656319E+02  1.186229645E+03  2.018548058E-05  0.00000E+00  9.000E+00
      21     1     1     2   513   515 -1.042906941E+03 -8.352244615E+02  1.420020348E+03  1.949798086E+03  2.157918644E-05  0.00000E+00  9.000E+00
      22     1     1     2     0     0  2.124189422E+02  1.352714341E+02 -1.061053150E+02  2.732736829E+02  6.180515955E-06  0.00000E+00  9.000E+00
#rwgt            1         186   1.6309190680265497E-003        6024     1995073           0
<rwgt>
<wgt id='central'>  0.167515178E+02 </wgt>
<wgt id='sudakovwgt'>  0.432285924E-01 </wgt>
<wgt id='scales0.50.5'>  0.230748266E+02 </wgt>
<wgt id='scales0.51.0'>  0.195203593E+02 </wgt>
<wgt id='scales1.00.5'>  0.198017850E+02 </wgt>
<wgt id='scales1.02.0'>  0.143410451E+02 </wgt>
<wgt id='scales2.01.0'>  0.145377542E+02 </wgt>
<wgt id='scales2.02.0'>  0.124458459E+02 </wgt>
</rwgt>
<scales uborns=' 0.133673680E+04'> </scales>
</event>
<event>
      4  10001  3.73164E+03  8.94427E-01  7.29735E-03  7.46611E-01
      21    -1     0     0   511   512  0.000000000E+00  0.000000000E+00  1.677484662E+03  1.677484662E+03  0.000000000E+00  0.00000E+00  9.000E+00
      -5    -1     0     0     0   511  0.000000000E+00  0.000000000E+00 -5.646604861E+02  5.646604861E+02  0.000000000E+00  0.00000E+00  9.000E+00
      -5     1     1     2     0   514  1.008096376E+02 -5.093711942E+02 -3.917738491E+02  6.504677897E+02  7.629394531E-06  0.00000E+00  9.000E+00
      21     1     1     2   514   512 -1.008096376E+02  5.093711942E+02  1.504598025E+03  1.591677359E+03  2.157918644E-05  0.00000E+00  9.000E+00
#rwgt            1         200   1.1078149676015404E-004        6024     1995518           0
<rwgt>
<wgt id='central'>  0.373163942E+04 </wgt>
<wgt id='sudakovwgt'>  0.187881598E+01 </wgt>
<wgt id='scales0.50.5'>  0.474980443E+04 </wgt>
<wgt id='scales0.51.0'>  0.443022616E+04 </wgt>
<wgt id='scales1.00.5'>  0.400082515E+04 </wgt>
<wgt id='scales1.02.0'>  0.346397401E+04 </wgt>
<wgt id='scales2.01.0'>  0.318776662E+04 </wgt>
<wgt id='scales2.02.0'>  0.295911200E+04 </wgt>
</rwgt>
<scales uborns=' 0.519250996E+03'> </scales>
</event>
<event>
      5  10001  1.33649E+06  1.76300E+01  7.29735E-03  1.71019E-01
      21    -1     0     0   515   512  0.000000000E+00  0.000000000E+00  3.901356622E+01  3.901356622E+01  0.000000000E+00  0.00000E+00  9.000E+00
       2    -1     0     0   512     0  0.000000000E+00  0.000000000E+00 -1.579098533E+03  1.579098533E+03  0.000000000E+00  0.00000E+00  9.000E+00
       2     1     1     2   513     0  1.879111992E+02 -1.239347509E+01 -1.098237991E+03  1.114266980E+03  1.525878906E-05  0.00000E+00  9.000E+00
      21     1     1     2   515   513 -1.970372228E+02  2.747767597E+01 -2.942111631E+02  3.551603840E+02  0.000000000E+00  0.00000E+00  9.000E+00
      22     1     1     2     0     0  9.126023639E+00 -1.508420088E+01 -1.476358122E+02  1.486847351E+02  1.907348633E-06  0.00000E+00  9.000E+00
#rwgt            1         187   1.6819575356200024E-002        6024     1996252           0
<rwgt>
<wgt id='central'>  0.133649050E+07 </wgt>
<wgt id='sudakovwgt'>  0.309612394E-01 </wgt>
<wgt id='scales0.50.5'>  0.163764201E+07 </wgt>
<wgt id='scales0.51.0'>  0.162718800E+07 </wgt>
<wgt id='scales1.00.5'>  0.134507639E+07 </wgt>
<wgt id='scales1.02.0'>  0.131850646E+07 </wgt>
<wgt id='scales2.01.0'>  0.111812809E+07 </wgt>
<wgt id='scales2.02.0'>  0.110308278E+07 </wgt>
</rwgt>
<scales uborns=' 0.193454227E+03'> </scales>
</event>
<event>
      5  10001  2.14516E+03  4.65866E+00  7.29735E-03  2.48787E-01
       3    -1     0     0   514     0  0.000000000E+00  0.000000000E+00  3.067611466E+02  3.067611466E+02  0.000000000E+00  0.00000E+00  9.000E+00
      21    -1     0     0   513   514  0.000000000E+00  0.000000000E+00 -1.063383661E+03  1.063383661E+03  0.000000000E+00  0.00000E+00  9.000E+00
       3     1     1     2   511     0  5.209972103E+02  2.235142794E+02 -3.463954196E+02  6.643692595E+02  3.814697266E-06  0.00000E+00  9.000E+00
      21     1     1     2   513   511 -5.234036327E+02 -2.239434812E+02 -4.120119986E+02  7.027488403E+02  1.705984480E-05  0.00000E+00  9.000E+00
      22     1     1     2     0     0  2.406422421E+00  4.292017751E-01  1.784903352E+00  3.026708279E+00  1.032382731E-07  0.00000E+00  9.000E+00
#rwgt            1         183   2.4441942028965882E-004        6024     1996847           0
<rwgt>
<wgt id='central'>  0.214516357E+04 </wgt>
<wgt id='sudakovwgt'>  0.359595946E-01 </wgt>
<wgt id='scales0.50.5'>  0.276238070E+04 </wgt>
<wgt id='scales0.51.0'>  0.254151132E+04 </wgt>
<wgt id='scales1.00.5'>  0.233158456E+04 </wgt>
<wgt id='scales1.02.0'>  0.198021585E+04 </wgt>
<wgt id='scales2.01.0'>  0.183568094E+04 </wgt>
<wgt id='scales2.02.0'>  0.169453304E+04 </wgt>
</rwgt>
<scales uborns=' 0.570418276E+03'> </scales>
</event>
<event>
      5  10001  4.31722E+03  2.43102E+02  7.29735E-03  1.08647E-01
       2    -1     0     0   511     0  0.000000000E+00  0.000000000E+00  8.733036307E+02  8.733036307E+02  0.000000000E+00  0.00000E+00  9.000E+00
       2    -1     0     0   512     0  0.000000000E+00  0.000000000E+00 -7.917597356E+02  7.917597356E+02  0.000000000E+00  0.00000E+00  9.000E+00
       2     1     1     2   512     0  1.825118943E+01 -4.334874306E+02  6.003547818E+02  7.407228378E+02  0.000000000E+00  0.00000E+00  9.000E+00
       2     1     1     2   511     0 -6.490826223E+01  4.904570896E+02 -6.237571163E+02  7.961370355E+02  7.629394531E-06  0.00000E+00  9.000E+00
      22     1     1     2     0     0  4.665707280E+01 -5.696965895E+01  1.049462296E+02  1.282034929E+02  1.907348633E-06  0.00000E+00  9.000E+00
#rwgt            1          97   9.8682310503075054E-004        6024     1997667           0
<rwgt>
<wgt id='central'>  0.431721852E+04 </wgt>
<wgt id='sudakovwgt'>  0.601190244E-03 </wgt>
<wgt id='scales0.50.5'>  0.538679188E+04 </wgt>
<wgt id='scales0.51.0'>  0.512824645E+04 </wgt>
<wgt id='scales1.00.5'>  0.453487676E+04 </wgt>
<wgt id='scales1.02.0'>  0.411894857E+04 </wgt>
<wgt id='scales2.01.0'>  0.368630165E+04 </wgt>
<wgt id='scales2.02.0'>  0.351700560E+04 </wgt>
</rwgt>
<scales uborns=' 0.506585946E+03'> </scales>
</event>
<event>
      4  10001  1.32632E+05  8.94427E-01  7.29735E-03  7.52632E-01
      21    -1     0     0   513   512  0.000000000E+00  0.000000000E+00  1.362541892E+02  1.362541892E+02  0.000000000E+00  0.00000E+00  9.000E+00
      -2    -1     0     0     0   513  0.000000000E+00  0.000000000E+00 -6.699077122E+02  6.699077122E+02  0.000000000E+00  0.00000E+00  9.000E+00
      -2     1     1     2     0   514  2.923178105E+01 -2.831954341E+02 -4.017265844E+02  4.923803404E+02  0.000000000E+00  0.00000E+00  9.000E+00
      21     1     1     2   514   512 -2.923178105E+01  2.831954341E+02 -1.319269386E+02  3.137815610E+02  3.303624740E-06  0.00000E+00  9.000E+00
#rwgt            1         197   1.0000357438734919E-003        6024     2001700           0
<rwgt>
<wgt id='central'>  0.132632240E+06 </wgt>
<wgt id='sudakovwgt'>  0.113233754E+02 </wgt>
<wgt id='scales0.50.5'>  0.166385172E+06 </wgt>
<wgt id='scales0.51.0'>  0.159758298E+06 </wgt>
<wgt id='scales1.00.5'>  0.138133658E+06 </wgt>
<wgt id='scales1.02.0'>  0.127095550E+06 </wgt>
<wgt id='scales2.01.0'>  0.111943576E+06 </wgt>
<wgt id='scales2.02.0'>  0.107270722E+06 </wgt>
</rwgt>
<scales uborns=' 0.284700107E+03'> </scales>
</event>
<event>
      5  10001  1.76754E+02  1.05837E+00  7.29735E-03  6.11334E-01
       1    -1     0     0   515     0  0.000000000E+00  0.000000000E+00  1.879092520E+03  1.879092520E+03  0.000000000E+00  0.00000E+00  9.000E+00
      21    -1     0     0   511   513  0.000000000E+00  0.000000000E+00 -4.160562462E+02  4.160562462E+02  0.000000000E+00  0.00000E+00  9.000E+00
       1     1     1     2   511     0 -6.979493731E+02  5.303845678E+02  8.378744596E+02  1.212631324E+03  2.642899792E-05  0.00000E+00  9.000E+00
      21     1     1     2   515   513  6.981291986E+02 -5.293415859E+02  6.105692745E+02  1.067886572E+03  7.629394531E-06  0.00000E+00  9.000E+00
      22     1     1     2     0     0 -1.798255160E-01 -1.042981913E+00  1.459253952E+01  1.463087004E+01  1.685873940E-07  0.00000E+00  9.000E+00
#rwgt            1         181   2.9362304267082700E-003        6024     2008576           0
<rwgt>
<wgt id='central'>  0.176754044E+03 </wgt>
<wgt id='sudakovwgt'>  0.643857973E-01 </wgt>
<wgt id='scales0.50.5'>  0.233228328E+03 </wgt>
<wgt id='scales0.51.0'>  0.207578615E+03 </wgt>
<wgt id='scales1.00.5'>  0.198594831E+03 </wgt>
<wgt id='scales1.02.0'>  0.158414989E+03 </wgt>
<wgt id='scales2.01.0'>  0.152381765E+03 </wgt>
<wgt id='scales2.02.0'>  0.136571481E+03 </wgt>
</rwgt>
<scales uborns=' 0.876363889E+03'> </scales>
</event>
<event>
      5  10001  3.29617E+03  4.09392E+01  7.29735E-03  1.44218E-01
       2    -1     0     0   511     0  0.000000000E+00  0.000000000E+00  1.350607006E+03  1.350607006E+03  0.000000000E+00  0.00000E+00  9.000E+00
      21    -1     0     0   512   514  0.000000000E+00  0.000000000E+00 -2.150528306E+02  2.150528306E+02  0.000000000E+00  0.00000E+00  9.000E+00
       2     1     1     2   512     0  3.250468226E+02  4.162333511E+02  4.492970004E+02  6.933782762E+02  1.427329020E-05  0.00000E+00  9.000E+00
      21     1     1     2   511   514 -3.092012235E+02 -4.088472318E+02  6.838387094E+02  8.546325737E+02  7.629394531E-06  0.00000E+00  9.000E+00
      22     1     1     2     0     0 -1.584559912E+01 -7.386119283E+00  2.418466011E+00  1.764898715E+01  2.346637211E-07  0.00000E+00  9.000E+00
#rwgt            1         182   4.9208209518209452E-003        6024     2009808           0
<rwgt>
<wgt id='central'>  0.329617107E+04 </wgt>
<wgt id='sudakovwgt'>  0.197118256E+00 </wgt>
<wgt id='scales0.50.5'>  0.419139653E+04 </wgt>
<wgt id='scales0.51.0'>  0.391141378E+04 </wgt>
<wgt id='scales1.00.5'>  0.353211301E+04 </wgt>
<wgt id='scales1.02.0'>  0.308278361E+04 </wgt>
<wgt id='scales2.01.0'>  0.281686414E+04 </wgt>
<wgt id='scales2.02.0'>  0.263450690E+04 </wgt>
</rwgt>
<scales uborns=' 0.530290168E+03'> </scales>
</event>
<event>
      5  10001  2.44879E+00  5.57643E+01  7.29735E-03  1.36425E-01
       2    -1     0     0   513     0  0.000000000E+00  0.000000000E+00  2.089620431E+03  2.089620431E+03  0.000000000E+00  0.00000E+00  9.000E+00
       2    -1     0     0   512     0  0.000000000E+00  0.000000000E+00 -1.844452860E+03  1.844452860E+03  0.000000000E+00  0.00000E+00  9.000E+00
       2     1     1     2   513     0  2.707134689E+02  1.920514027E+03 -1.675008083E+02  1.946719402E+03  3.214321050E-05  0.00000E+00  9.000E+00
       2     1     1     2   512     0 -2.536008782E+02 -1.638457385E+03  3.099648749E+02  1.686693283E+03  1.375408659E-05  0.00000E+00  9.000E+00
      22     1     1     2     0     0 -1.711259075E+01 -2.820566417E+02  1.027035052E+02  3.006606058E+02  5.722045898E-06  0.00000E+00  9.000E+00
#rwgt            1          97   3.7716048148699124E-003        6024     2011712           0
<rwgt>
<wgt id='central'>  0.244878616E+01 </wgt>
<wgt id='sudakovwgt'>  0.172823636E-02 </wgt>
<wgt id='scales0.50.5'>  0.315729216E+01 </wgt>
<wgt id='scales0.51.0'>  0.283572633E+01 </wgt>
<wgt id='scales1.00.5'>  0.272647801E+01 </wgt>
<wgt id='scales1.02.0'>  0.221420473E+01 </wgt>
<wgt id='scales2.01.0'>  0.213664091E+01 </wgt>
<wgt id='scales2.02.0'>  0.193195840E+01 </wgt>
</rwgt>
<scales uborns=' 0.194171916E+04'> </scales>
</event>
<event>
      4  10001  8.35079E+03  8.94427E-01  7.29735E-03  7.51571E-01
      21    -1     0     0   514   512  0.000000000E+00  0.000000000E+00  4.830153440E+02  4.830153440E+02  0.000000000E+00  0.00000E+00  9.000E+00
       1    -1     0     0   512     0  0.000000000E+00  0.000000000E+00 -6.229016137E+02  6.229016137E+02  0.000000000E+00  0.00000E+00  9.000E+00
       1     1     1     2   511     0  2.632787139E+02 -3.687839598E+02 -3.815637577E+02  5.923750428E+02  5.394796609E-06  0.00000E+00  9.000E+00
      21     1     1     2   514   511 -2.632787139E+02  3.687839598E+02  2.416774879E+02  5.135419149E+02  8.529922400E-06  0.00000E+00  9.000E+00
#rwgt            1         186   3.1075117062466140E-003        6024     2037318           0
<rwgt>
<wgt id='central'>  0.835078667E+04 </wgt>
<wgt id='sudakovwgt'>  0.232414039E+01 </wgt>
<wgt id='scales0.50.5'>  0.107894977E+05 </wgt>
<wgt id='scales0.51.0'>  0.994465297E+04 </wgt>
<wgt id='scales1.00.5'>  0.906022866E+04 </wgt>
<wgt id='scales1.02.0'>  0.772874403E+04 </wgt>
<wgt id='scales2.01.0'>  0.711533459E+04 </wgt>
<wgt id='scales2.02.0'>  0.658531704E+04 </wgt>
</rwgt>
<scales uborns=' 0.453119510E+03'> </scales>
</event>
<event>
      5  10001  1.62767E+01  1.96541E+03  7.29735E-03  8.44600E-02
       2    -1     0     0   511     0  0.000000000E+00  0.000000000E+00  1.448164290E+03  1.448164290E+03  0.000000000E+00  0.00000E+00  9.000E+00
       2    -1     0     0   513     0  0.000000000E+00  0.000000000E+00 -1.315198228E+03  1.315198228E+03  0.000000000E+00  0.00000E+00  9.000E+00
       2     1     1     2   513     0 -2.742402958E+02  5.095930628E+02 -1.067484500E+02  5.884624551E+02  2.819394207E-05  0.00000E+00  9.000E+00
       2     1     1     2   511     0  6.507883035E+02 -1.272331408E+01  9.990728735E+02  1.192406770E+03  2.412626389E-05  0.00000E+00  9.000E+00
      22     1     1     2     0     0 -3.765480077E+02 -4.968697487E+02 -7.593583613E+02  9.824932927E+02  1.078959322E-05  0.00000E+00  9.000E+00
#rwgt            1          97   2.3048563004030745E-003        6024     2038924           0
<rwgt>
<wgt id='central'>  0.162766764E+02 </wgt>
<wgt id='sudakovwgt'>  0.451700457E-03 </wgt>
<wgt id='scales0.50.5'>  0.205455977E+02 </wgt>
<wgt id='scales0.51.0'>  0.189653096E+02 </wgt>
<wgt id='scales1.00.5'>  0.176329592E+02 </wgt>
<wgt id='scales1.02.0'>  0.150951184E+02 </wgt>
<wgt id='scales2.01.0'>  0.141268281E+02 </wgt>
<wgt id='scales2.02.0'>  0.131013131E+02 </wgt>
</rwgt>
<scales uborns=' 0.134388158E+04'> </scales>
</event>
<event>
      5  10001  1.55386E+01  2.72742E+02  7.29735E-03  1.06954E-01
       3    -1     0     0   513     0  0.000000000E+00  0.000000000E+00  1.997643321E+03  1.997643321E+03  0.000000000E+00  0.00000E+00  9.000E+00
       2    -1     0     0   512     0  0.000000000E+00  0.000000000E+00 -1.764614289E+03  1.764614289E+03  0.000000000E+00  0.00000E+00  9.000E+00
       3     1     1     2   512     0 -1.335496496E+03  2.113791449E+02  1.414572188E+03  1.956846061E+03  0.000000000E+00  0.00000E+00  9.000E+00
      22     1     1     2     0     0  3.654556940E+02 -7.578790785E+01 -4.394939691E+02  5.765905134E+02  7.629394531E-06  0.00000E+00  9.000E+00
       2     1     1     2   513     0  9.700408017E+02 -1.355912371E+02 -7.420491865E+02  1.228821035E+03  0.000000000E+00  0.00000E+00  9.000E+00
#rwgt            1          98   2.3408378917306070E-004        6024     2039069           0
<rwgt>
<wgt id='central'>  0.155386295E+02 </wgt>
<wgt id='sudakovwgt'>  0.322460704E+00 </wgt>
<wgt id='scales0.50.5'>  0.197927228E+02 </wgt>
<wgt id='scales0.51.0'>  0.181025633E+02 </wgt>
<wgt id='scales1.00.5'>  0.169893731E+02 </wgt>
<wgt id='scales1.02.0'>  0.142875794E+02 </wgt>
<wgt id='scales2.01.0'>  0.134879564E+02 </wgt>
<wgt id='scales2.02.0'>  0.124020342E+02 </wgt>
</rwgt>
<scales uborns=' 0.135550853E+04'> </scales>
</event>
<event>
      5  10001  6.19897E+01  1.32187E+02  7.29735E-03  1.18612E-01
       2    -1     0     0   511     0  0.000000000E+00  0.000000000E+00  1.833211428E+03  1.833211428E+03  0.000000000E+00  0.00000E+00  9.000E+00
      -1    -1     0     0     0   511  0.000000000E+00  0.000000000E+00 -1.174857561E+03  1.174857561E+03  0.000000000E+00  0.00000E+00  9.000E+00
       2     1     1     2   513     0 -8.588184085E+02  5.307764352E+02  1.317317432E+03  1.659704160E+03  2.642899792E-05  0.00000E+00  9.000E+00
      -1     1     1     2     0   513  8.563919766E+02 -5.573573743E+02 -7.409354479E+02  1.262156804E+03  1.078959322E-05  0.00000E+00  9.000E+00
      22     1     1     2     0     0  2.426431892E+00  2.658093911E+01  8.197188257E+01  8.620802415E+01  9.536743164E-07  0.00000E+00  9.000E+00
#rwgt            1         145   5.1493869532907692E-004        6024     2112440           0
<rwgt>
<wgt id='central'>  0.619896645E+02 </wgt>
<wgt id='sudakovwgt'>  0.569205199E-04 </wgt>
<wgt id='scales0.50.5'>  0.812134535E+02 </wgt>
<wgt id='scales0.51.0'>  0.725457017E+02 </wgt>
<wgt id='scales1.00.5'>  0.693962220E+02 </wgt>
<wgt id='scales1.02.0'>  0.557807459E+02 </wgt>
<wgt id='scales2.01.0'>  0.536014780E+02 </wgt>
<wgt id='scales2.02.0'>  0.482326971E+02 </wgt>
</rwgt>
<scales uborns=' 0.105421119E+04'> </scales>
</event>
<event>
      5  10001  4.67976E+03  1.17520E+00  7.29735E-03  5.48572E-01
      21    -1     0     0   512   514  0.000000000E+00  0.000000000E+00  1.321790778E+02  1.321790778E+02  0.000000000E+00  0.00000E+00  9.000E+00
       1    -1     0     0   513     0  0.000000000E+00  0.000000000E+00 -1.893910316E+03  1.893910316E+03  0.000000000E+00  0.00000E+00  9.000E+00
       1     1     1     2   512     0  1.801881556E+02  4.556423583E+02 -9.127415006E+02  1.035941493E+03  1.078959322E-05  0.00000E+00  9.000E+00
      21     1     1     2   513   514 -1.848386494E+02 -4.642385183E+02 -8.304706313E+02  9.692080259E+02  1.078959322E-05  0.00000E+00  9.000E+00
      22     1     1     2     0     0  4.650493790E+00  8.596160004E+00 -1.851910683E+01  2.093987529E+01  2.384185791E-07  0.00000E+00  9.000E+00
#rwgt            1         186   3.6823389039463998E-003        6024     2183798           0
<rwgt>
<wgt id='central'>  0.467975627E+04 </wgt>
<wgt id='sudakovwgt'>  0.343348164E-01 </wgt>
<wgt id='scales0.50.5'>  0.603660413E+04 </wgt>
<wgt id='scales0.51.0'>  0.556058964E+04 </wgt>
<wgt id='scales1.00.5'>  0.508037104E+04 </wgt>
<wgt id='scales1.02.0'>  0.432221045E+04 </wgt>
<wgt id='scales2.01.0'>  0.399483767E+04 </wgt>
<wgt id='scales2.02.0'>  0.368961851E+04 </wgt>
</rwgt>
<scales uborns=' 0.499717151E+03'> </scales>
</event>
<event>
      5  10001  2.22709E+01  7.28932E+01  7.29735E-03  1.30336E-01
       1    -1     0     0   512     0  0.000000000E+00  0.000000000E+00  1.627023722E+03  1.627023722E+03  0.000000000E+00  0.00000E+00  9.000E+00
       2    -1     0     0   511     0  0.000000000E+00  0.000000000E+00 -1.014577184E+03  1.014577184E+03  0.000000000E+00  0.00000E+00  9.000E+00
       1     1     1     2   511     0  1.015391830E+03 -5.747319566E+02  5.011668971E+02  1.269844734E+03  4.108554693E-05  0.00000E+00  9.000E+00
       2     1     1     2   512     0 -1.061311752E+03  6.742334851E+02  9.478394987E+01  1.260935139E+03  1.921600502E-05  0.00000E+00  9.000E+00
      22     1     1     2     0     0  4.591992225E+01 -9.950152856E+01  1.649569146E+01  1.108210327E+02  4.756435715E-06  0.00000E+00  9.000E+00
#rwgt            1          96   1.2880970776362381E-003        6024     2185123           0
<rwgt>
<wgt id='central'>  0.222708752E+02 </wgt>
<wgt id='sudakovwgt'>  0.601313295E-02 </wgt>
<wgt id='scales0.50.5'>  0.283435480E+02 </wgt>
<wgt id='scales0.51.0'>  0.259760864E+02 </wgt>
<wgt id='scales1.00.5'>  0.243006707E+02 </wgt>
<wgt id='scales1.02.0'>  0.205161516E+02 </wgt>
<wgt id='scales2.01.0'>  0.193124640E+02 </wgt>
<wgt id='scales2.02.0'>  0.177908139E+02 </wgt>
</rwgt>
<scales uborns=' 0.126837257E+04'> </scales>
</event>
<event>
      5  10001  6.76257E+04  2.40840E+00  7.29735E-03  3.29177E-01
       3    -1     0     0   511     0  0.000000000E+00  0.000000000E+00  2.474570824E+02  2.474570824E+02  0.000000000E+00  0.00000E+00  9.000E+00
      21    -1     0     0   513   514  0.000000000E+00  0.000000000E+00 -4.366304026E+02  4.366304026E+02  0.000000000E+00  0.00000E+00  9.000E+00
       3     1     1     2   513     0 -2.984743569E+02  1.084596837E+02 -1.574013697E+02  3.544370690E+02  8.313939941E-06  0.00000E+00  9.000E+00
      21     1     1     2   511   514  3.004378212E+02 -1.098543912E+02 -3.878568438E+01  3.222346986E+02  6.860492024E-06  0.00000E+00  9.000E+00
      22     1     1     2     0     0 -1.963464362E+00  1.394707505E+00  7.013733877E+00  7.415717378E+00  8.429369702E-08  0.00000E+00  9.000E+00
#rwgt            1         183   2.8340578657166287E-004        6024     2192999           0
<rwgt>
<wgt id='central'>  0.676256569E+05 </wgt>
<wgt id='sudakovwgt'>  0.257969810E-01 </wgt>
<wgt id='scales0.50.5'>  0.846225181E+05 </wgt>
<wgt id='scales0.51.0'>  0.812200453E+05 </wgt>
<wgt id='scales1.00.5'>  0.704586780E+05 </wgt>
<wgt id='scales1.02.0'>  0.647885959E+05 </wgt>
<wgt id='scales2.01.0'>  0.572147743E+05 </wgt>
<wgt id='scales2.02.0'>  0.548144403E+05 </wgt>
</rwgt>
<scales uborns=' 0.318728570E+03'> </scales>
</event>
<event>
      5  10001  1.83820E+01  8.53048E+02  7.29735E-03  9.26793E-02
       2    -1     0     0   511     0  0.000000000E+00  0.000000000E+00  2.484591672E+03  2.484591672E+03  0.000000000E+00  0.00000E+00  9.000E+00
      21    -1     0     0   515   511  0.000000000E+00  0.000000000E+00 -7.551073684E+02  7.551073684E+02  0.000000000E+00  0.00000E+00  9.000E+00
      22     1     1     2     0     0  2.252130196E+02  2.614957962E+02  3.774808706E+01  3.471683651E+02  6.415187858E-06  0.00000E+00  9.000E+00
      21     1     1     2   515   512 -7.600115216E+01 -1.263972147E+03  1.274176318E+03  1.796364956E+03  3.411968960E-05  0.00000E+00  9.000E+00
       2     1     1     2   512     0 -1.492118674E+02  1.002476351E+03  4.175598986E+02  1.096165720E+03  2.642899792E-05  0.00000E+00  9.000E+00
#rwgt            1         182   3.1144027598071613E-003        6024     2193768           0
<rwgt>
<wgt id='central'>  0.183819809E+02 </wgt>
<wgt id='sudakovwgt'>  0.882655022E-01 </wgt>
<wgt id='scales0.50.5'>  0.245497509E+02 </wgt>
<wgt id='scales0.51.0'>  0.214268253E+02 </wgt>
<wgt id='scales1.00.5'>  0.210611472E+02 </wgt>
<wgt id='scales1.02.0'>  0.161854978E+02 </wgt>
<wgt id='scales2.01.0'>  0.159486649E+02 </wgt>
<wgt id='scales2.02.0'>  0.140429268E+02 </wgt>
</rwgt>
<scales uborns=' 0.131396809E+04'> </scales>
</event>
<event>
      5  10001  3.57678E+02  4.24087E+01  7.29735E-03  1.43282E-01
       2    -1     0     0   512     0  0.000000000E+00  0.000000000E+00  1.543609577E+03  1.543609577E+03  0.000000000E+00  0.00000E+00  9.000E+00
       2    -1     0     0   513     0  0.000000000E+00  0.000000000E+00 -7.497352738E+02  7.497352738E+02  0.000000000E+00  0.00000E+00  9.000E+00
       2     1     1     2   512     0 -1.293996791E+02  7.615722916E+02 -3.964960661E+02  8.683005025E+02  9.344061824E-06  0.00000E+00  9.000E+00
       2     1     1     2   513     0  9.730165312E+01 -7.173078952E+02  1.059130537E+03  1.282870111E+03  1.525878906E-05  0.00000E+00  9.000E+00
      22     1     1     2     0     0  3.209802593E+01 -4.426439635E+01  1.312398319E+02  1.421742365E+02  1.907348633E-06  0.00000E+00  9.000E+00
#rwgt            1          97   2.0530324137856956E-003        6024     2194491           0
<rwgt>
<wgt id='central'>  0.357678090E+03 </wgt>
<wgt id='sudakovwgt'>  0.193932506E-02 </wgt>
<wgt id='scales0.50.5'>  0.450673457E+03 </wgt>
<wgt id='scales0.51.0'>  0.421068596E+03 </wgt>
<wgt id='scales1.00.5'>  0.382825939E+03 </wgt>
<wgt id='scales1.02.0'>  0.335440212E+03 </wgt>
<wgt id='scales2.01.0'>  0.307728889E+03 </wgt>
<wgt id='scales2.02.0'>  0.288596570E+03 </wgt>
</rwgt>
<scales uborns=' 0.775340171E+03'> </scales>
</event>
<event>
      5  10001  7.14678E+00  4.64406E+00  7.29735E-03  2.49072E-01
       2    -1     0     0   512     0  0.000000000E+00  0.000000000E+00  3.397820844E+03  3.397820844E+03  0.000000000E+00  0.00000E+00  9.000E+00
       1    -1     0     0   511     0  0.000000000E+00  0.000000000E+00 -1.406156132E+03  1.406156132E+03  0.000000000E+00  0.00000E+00  9.000E+00
       2     1     1     2   511     0  1.558159490E+03  1.699223273E+02  2.034178109E+03  2.567998281E+03  3.051757812E-05  0.00000E+00  9.000E+00
       1     1     1     2   512     0 -1.562663934E+03 -1.710525125E+02 -5.969481480E+02  1.681524494E+03  2.954851796E-05  0.00000E+00  9.000E+00
      22     1     1     2     0     0  4.504444162E+00  1.130185205E+00  5.544347504E+02  5.544541999E+02  0.000000000E+00  0.00000E+00  9.000E+00
#rwgt            1          92   3.4175730469803225E-003        6024     2217631           0
<rwgt>
<wgt id='central'>  0.714678479E+01 </wgt>
<wgt id='sudakovwgt'>  0.126494709E+01 </wgt>
<wgt id='scales0.50.5'>  0.941885427E+01 </wgt>
<wgt id='scales0.51.0'>  0.830510090E+01 </wgt>
<wgt id='scales1.00.5'>  0.810519705E+01 </wgt>
<wgt id='scales1.02.0'>  0.635339373E+01 </wgt>
<wgt id='scales2.01.0'>  0.621701692E+01 </wgt>
<wgt id='scales2.02.0'>  0.552684654E+01 </wgt>
</rwgt>
<scales uborns=' 0.156969660E+04'> </scales>
</event>
<event>
      5  10001  3.81110E+05  5.14044E+01  7.29735E-03  1.38392E-01
      21    -1     0     0   511   514  0.000000000E+00  0.000000000E+00  7.661661657E+01  7.661661657E+01  0.000000000E+00  0.00000E+00  9.000E+00
       2    -1     0     0   514     0  0.000000000E+00  0.000000000E+00 -1.139989743E+03  1.139989743E+03  0.000000000E+00  0.00000E+00  9.000E+00
       2     1     1     2   513     0  5.407946905E+01  2.029753234E+02 -6.448586189E+02  6.782080870E+02  1.078959322E-05  0.00000E+00  9.000E+00
      21     1     1     2   511   513 -7.193595574E+01 -2.208734886E+02 -1.681616790E+02  2.867720871E+02  4.264961200E-06  0.00000E+00  9.000E+00
      22     1     1     2     0     0  1.785648669E+01  1.789816518E+01 -2.503528281E+02  2.516261850E+02  0.000000000E+00  0.00000E+00  9.000E+00
#rwgt            1         187   1.3186498756096317E-002        6024     2260751           0
<rwgt>
<wgt id='central'>  0.381110270E+06 </wgt>
<wgt id='sudakovwgt'>  0.582655029E-03 </wgt>
<wgt id='scales0.50.5'>  0.471697544E+06 </wgt>
<wgt id='scales0.51.0'>  0.461241169E+06 </wgt>
<wgt id='scales1.00.5'>  0.389749795E+06 </wgt>
<wgt id='scales1.02.0'>  0.371058698E+06 </wgt>
<wgt id='scales2.01.0'>  0.320406701E+06 </wgt>
<wgt id='scales2.02.0'>  0.311956372E+06 </wgt>
</rwgt>
<scales uborns=' 0.238595001E+03'> </scales>
</event>
<event>
      5  10001  1.19199E+05  2.74973E+01  7.29735E-03  1.55715E-01
      21    -1     0     0   512   514  0.000000000E+00  0.000000000E+00  1.168562113E+03  1.168562113E+03  0.000000000E+00  0.00000E+00  9.000E+00
       2    -1     0     0   513     0  0.000000000E+00  0.000000000E+00 -1.080721676E+02  1.080721676E+02  0.000000000E+00  0.00000E+00  9.000E+00
       2     1     1     2   512     0  2.618257594E+02  9.044682649E+01  6.551213755E+02  7.112786890E+02  1.078959322E-05  0.00000E+00  9.000E+00
      21     1     1     2   513   514 -2.893173162E+02 -9.100706511E+01  4.314968592E+02  5.274242456E+02  9.344061824E-06  0.00000E+00  9.000E+00
      22     1     1     2     0     0  2.749155671E+01  5.602386194E-01 -2.612828900E+01  3.793134646E+01  1.066240300E-06  0.00000E+00  9.000E+00
#rwgt            1         187   2.5247399465936775E-004        6024     2261139           0
<rwgt>
<wgt id='central'>  0.119199452E+06 </wgt>
<wgt id='sudakovwgt'>  0.495553638E-01 </wgt>
<wgt id='scales0.50.5'>  0.153563120E+06 </wgt>
<wgt id='scales0.51.0'>  0.143510854E+06 </wgt>
<wgt id='scales1.00.5'>  0.127548333E+06 </wgt>
<wgt id='scales1.02.0'>  0.111678529E+06 </wgt>
<wgt id='scales2.01.0'>  0.100644764E+06 </wgt>
<wgt id='scales2.02.0'>  0.942949121E+05 </wgt>
</rwgt>
<scales uborns=' 0.289838875E+03'> </scales>
</event>
<event>
      5  10001  3.22756E+03  1.14675E+02  7.29735E-03  1.21211E-01
       2    -1     0     0   512     0  0.000000000E+00  0.000000000E+00  2.379954529E+03  2.379954529E+03  0.000000000E+00  0.00000E+00  9.000E+00
       4    -1     0     0   511     0  0.000000000E+00  0.000000000E+00 -1.332690606E+02  1.332690606E+02  0.000000000E+00  0.00000E+00  9.000E+00
       2     1     1     2   511     0 -5.074420417E+02  1.323888696E+02  1.565224008E+03  1.650742389E+03  0.000000000E+00  0.00000E+00  9.000E+00
       4     1     1     2   512     0  4.601357062E+02 -1.331971927E+02  6.410609695E+02  8.002659102E+02  1.705984480E-05  0.00000E+00  9.000E+00
      22     1     1     2     0     0  4.730633549E+01  8.083231118E-01  4.040049111E+01  6.221529109E+01  9.536743164E-07  0.00000E+00  9.000E+00
#rwgt            1         107   2.7752789836281758E-004        6024     2261631           0
<rwgt>
<wgt id='central'>  0.322756179E+04 </wgt>
<wgt id='sudakovwgt'>  0.273593791E+00 </wgt>
<wgt id='scales0.50.5'>  0.393324228E+04 </wgt>
<wgt id='scales0.51.0'>  0.382969634E+04 </wgt>
<wgt id='scales1.00.5'>  0.331482560E+04 </wgt>
<wgt id='scales1.02.0'>  0.312920215E+04 </wgt>
<wgt id='scales2.01.0'>  0.275841297E+04 </wgt>
<wgt id='scales2.02.0'>  0.267435209E+04 </wgt>
</rwgt>
<scales uborns=' 0.532185404E+03'> </scales>
</event>
<event>
      5  10001  5.10127E+04  1.26194E+00  7.29735E-03  5.13190E-01
       1    -1     0     0   511     0  0.000000000E+00  0.000000000E+00  1.928098828E+03  1.928098828E+03  0.000000000E+00  0.00000E+00  9.000E+00
      21    -1     0     0   513   514  0.000000000E+00  0.000000000E+00 -2.220663146E+02  2.220663146E+02  0.000000000E+00  0.00000E+00  9.000E+00
       1     1     1     2   513     0 -1.077235846E+02  8.089684727E+01  7.140017872E+02  7.265997679E+02  1.078959322E-05  0.00000E+00  9.000E+00
      21     1     1     2   511   514  2.675080876E+02 -2.002654773E+02 -7.130270468E+01  3.416883288E+02  2.336015456E-06  0.00000E+00  9.000E+00
      22     1     1     2     0     0 -1.597845030E+02  1.193686300E+02  1.063333431E+03  1.081877046E+03  0.000000000E+00  0.00000E+00  9.000E+00
#rwgt            1         181   4.3976760264122436E-003        6024     2262517           0
<rwgt>
<wgt id='central'>  0.510127206E+05 </wgt>
<wgt id='sudakovwgt'>  0.321655662E-01 </wgt>
<wgt id='scales0.50.5'>  0.679484071E+05 </wgt>
<wgt id='scales0.51.0'>  0.611945012E+05 </wgt>
<wgt id='scales1.00.5'>  0.566428623E+05 </wgt>
<wgt id='scales1.02.0'>  0.461787656E+05 </wgt>
<wgt id='scales2.01.0'>  0.432019890E+05 </wgt>
<wgt id='scales2.02.0'>  0.391081931E+05 </wgt>
</rwgt>
<scales uborns=' 0.334166093E+03'> </scales>
</event>
<event>
      5  10001  9.88445E+02  3.59029E+02  7.29735E-03  1.03118E-01
       2    -1     0     0   513     0  0.000000000E+00  0.000000000E+00  9.657432019E+02  9.657432019E+02  0.000000000E+00  0.00000E+00  9.000E+00
      21    -1     0     0   512   515  0.000000000E+00  0.000000000E+00 -6.050666698E+02  6.050666698E+02  0.000000000E+00  0.00000E+00  9.000E+00
      22     1     1     2     0     0 -6.821067038E+01  2.046765265E+02  3.294922381E+02  3.938404639E+02  3.814697266E-06  0.00000E+00  9.000E+00
      21     1     1     2   513   515  4.493448936E+02 -4.356651259E+02 -2.223962607E+02  6.642100813E+02  6.031565972E-06  0.00000E+00  9.000E+00
       2     1     1     2   512     0 -3.811342232E+02  2.309885995E+02  2.535805547E+02  5.127593265E+02  8.529922400E-06  0.00000E+00  9.000E+00
#rwgt            1         182   5.7813649028600617E-003        6024     2263404           0
<rwgt>
<wgt id='central'>  0.988445315E+03 </wgt>
<wgt id='sudakovwgt'>  0.492263784E-03 </wgt>
<wgt id='scales0.50.5'>  0.128027342E+04 </wgt>
<wgt id='scales0.51.0'>  0.116778990E+04 </wgt>
<wgt id='scales1.00.5'>  0.108365371E+04 </wgt>
<wgt id='scales1.02.0'>  0.906375434E+03 </wgt>
<wgt id='scales2.01.0'>  0.847847058E+03 </wgt>
<wgt id='scales2.02.0'>  0.777451193E+03 </wgt>
</rwgt>
<scales uborns=' 0.651003536E+03'> </scales>
</event>
<event>
      5  10001  3.93661E+03  6.28116E+00  7.29735E-03  2.22426E-01
      21    -1     0     0   511   514  0.000000000E+00  0.000000000E+00  3.137095505E+03  3.137095505E+03  0.000000000E+00  0.00000E+00  9.000E+00
      21    -1     0     0   514   513  0.000000000E+00  0.000000000E+00 -1.044454182E+02  1.044454182E+02  0.000000000E+00  0.00000E+00  9.000E+00
       2     1     1     2   511     0 -4.896917493E+02  1.524090775E+02  2.218935288E+03  2.277432841E+03  3.051757812E-05  0.00000E+00  9.000E+00
      -2     1     1     2     0   513  4.907113352E+02 -1.522221382E+02  8.143600651E+02  9.628870700E+02  1.868812365E-05  0.00000E+00  9.000E+00
      22     1     1     2     0     0 -1.019585980E+00 -1.869392777E-01 -6.452659423E-01  1.221011876E+00  6.495265579E-08  0.00000E+00  9.000E+00
#rwgt            1         202   5.5580730488648147E-005        6024     2263816           0
<rwgt>
<wgt id='central'>  0.393660638E+04 </wgt>
<wgt id='sudakovwgt'>  0.574526055E+00 </wgt>
<wgt id='scales0.50.5'>  0.571311755E+04 </wgt>
<wgt id='scales0.51.0'>  0.467450790E+04 </wgt>
<wgt id='scales1.00.5'>  0.481126916E+04 </wgt>
<wgt id='scales1.02.0'>  0.327826412E+04 </wgt>
<wgt id='scales2.01.0'>  0.336229559E+04 </wgt>
<wgt id='scales2.02.0'>  0.279999619E+04 </wgt>
</rwgt>
<scales uborns=' 0.514567458E+03'> </scales>
</event>
<event>
      5  10001  2.51396E+02  1.44459E+03  7.29735E-03  8.73138E-02
      21    -1     0     0   513   514  0.000000000E+00  0.000000000E+00  8.019323454E+02  8.019323454E+02  0.000000000E+00  0.00000E+00  9.000E+00
      -4    -1     0     0     0   512  0.000000000E+00  0.000000000E+00 -8.511212756E+02  8.511212756E+02  0.000000000E+00  0.00000E+00  9.000E+00
      22     1     1     2     0     0 -1.180797618E+01 -4.030905497E+02  2.934930910E+01  4.043300651E+02  8.556536887E-06  0.00000E+00  9.000E+00
      21     1     1     2   513   512  4.336168114E+02 -2.226413315E+02  1.907968927E+01  4.878080936E+02  1.815741803E-06  0.00000E+00  9.000E+00
      -4     1     1     2     0   514 -4.218088353E+02  6.257318812E+02 -9.761792859E+01  7.609154622E+02  9.047348958E-06  0.00000E+00  9.000E+00
#rwgt            1         199   1.1111004138772670E-004        6024     2266869           0
<rwgt>
<wgt id='central'>  0.251395826E+03 </wgt>
<wgt id='sudakovwgt'>  0.400000000E-03 </wgt>
<wgt id='scales0.50.5'>  0.315319963E+03 </wgt>
<wgt id='scales0.51.0'>  0.295591824E+03 </wgt>
<wgt id='scales1.00.5'>  0.268174459E+03 </wgt>
<wgt id='scales1.02.0'>  0.235462633E+03 </wgt>
<wgt id='scales2.01.0'>  0.216511249E+03 </wgt>
<wgt id='scales2.02.0'>  0.202788862E+03 </wgt>
</rwgt>
<scales uborns=' 0.824203799E+03'> </scales>
</event>
<event>
      5  10001  1.30858E+03  5.77576E+01  7.29735E-03  1.35593E-01
       1    -1     0     0   512     0  0.000000000E+00  0.000000000E+00  1.458790281E+02  1.458790281E+02  0.000000000E+00  0.00000E+00  9.000E+00
       2    -1     0     0   511     0  0.000000000E+00  0.000000000E+00 -3.578067180E+03  3.578067180E+03  0.000000000E+00  0.00000E+00  9.000E+00
       1     1     1     2   511     0 -3.250820279E+02 -5.285620725E+02 -7.624906304E+02  9.830809482E+02  2.157918644E-05  0.00000E+00  9.000E+00
      22     1     1     2     0     0  1.429740697E-01  1.941128640E-01 -1.084719460E+00  1.111187516E+00  1.490116119E-08  0.00000E+00  9.000E+00
       2     1     1     2   512     0  3.249390538E+02  5.283679596E+02 -2.668612802E+03  2.739754072E+03  4.315837288E-05  0.00000E+00  9.000E+00
#rwgt            1          96   2.2358207379165281E-003        6024     2266911           0
<rwgt>
<wgt id='central'>  0.130858280E+04 </wgt>
<wgt id='sudakovwgt'>  0.489970702E-04 </wgt>
<wgt id='scales0.50.5'>  0.169843540E+04 </wgt>
<wgt id='scales0.51.0'>  0.154757010E+04 </wgt>
<wgt id='scales1.00.5'>  0.143614729E+04 </wgt>
<wgt id='scales1.02.0'>  0.119863572E+04 </wgt>
<wgt id='scales2.01.0'>  0.112149211E+04 </wgt>
<wgt id='scales2.02.0'>  0.102726658E+04 </wgt>
</rwgt>
<scales uborns=' 0.620529354E+03'> </scales>
</event>
<event>
      5  10001  3.55871E+02  8.28992E+00  7.29735E-03  2.05669E-01
       3    -1     0     0   511     0  0.000000000E+00  0.000000000E+00  5.466099731E+02  5.466099731E+02  0.000000000E+00  0.00000E+00  9.000E+00
       1    -1     0     0   512     0  0.000000000E+00  0.000000000E+00 -3.080399307E+03  3.080399307E+03  0.000000000E+00  0.00000E+00  9.000E+00
       3     1     1     2   512     0 -5.842344791E+02 -1.037855154E+02  1.393387238E+02  6.095216483E+02  1.705984480E-05  0.00000E+00  9.000E+00
       1     1     1     2   511     0  7.627566001E+02  1.427213115E+02 -2.720268738E+03  2.828785784E+03  4.315837288E-05  0.00000E+00  9.000E+00
      22     1     1     2     0     0 -1.785221209E+02 -3.893579614E+01  4.714067976E+01  1.887018484E+02  5.436780096E-06  0.00000E+00  9.000E+00
#rwgt            1          93   9.2724807719162471E-005        6024     2295534           0
<rwgt>
<wgt id='central'>  0.355871404E+03 </wgt>
<wgt id='sudakovwgt'>  0.587833255E-01 </wgt>
<wgt id='scales0.50.5'>  0.473401143E+03 </wgt>
<wgt id='scales0.51.0'>  0.418934011E+03 </wgt>
<wgt id='scales1.00.5'>  0.402139081E+03 </wgt>
<wgt id='scales1.02.0'>  0.317146601E+03 </wgt>
<wgt id='scales2.01.0'>  0.306178771E+03 </wgt>
<wgt id='scales2.02.0'>  0.272861673E+03 </wgt>
</rwgt>
<scales uborns=' 0.776019457E+03'> </scales>
</event>
<event>
      5  10001  9.72226E+03  6.85658E+00  7.29735E-03  2.16832E-01
       2    -1     0     0   511     0  0.000000000E+00  0.000000000E+00  2.956389724E+03  2.956389724E+03  0.000000000E+00  0.00000E+00  9.000E+00
      -1    -1     0     0     0   511  0.000000000E+00  0.000000000E+00 -2.850363717E+02  2.850363717E+02  0.000000000E+00  0.00000E+00  9.000E+00
       2     1     1     2   513     0  2.926438505E+02 -2.678188920E+02  2.445343186E+03  2.477311179E+03  0.000000000E+00  0.00000E+00  9.000E+00
      -1     1     1     2     0   513 -3.229656189E+02  3.011573817E+02 -8.513536695E+01  4.497227927E+02  1.318004128E-05  0.00000E+00  9.000E+00
      22     1     1     2     0     0  3.032176834E+01 -3.333848977E+01  3.111455335E+02  3.143921238E+02  3.814697266E-06  0.00000E+00  9.000E+00
#rwgt            1         145   7.0484746016191506E-004        6024     2301112           0
<rwgt>
<wgt id='central'>  0.972226083E+04 </wgt>
<wgt id='sudakovwgt'>  0.135374047E-02 </wgt>
<wgt id='scales0.50.5'>  0.127776361E+05 </wgt>
<wgt id='scales0.51.0'>  0.115847446E+05 </wgt>
<wgt id='scales1.00.5'>  0.107233698E+05 </wgt>
<wgt id='scales1.02.0'>  0.886541473E+04 </wgt>
<wgt id='scales2.01.0'>  0.827980303E+04 </wgt>
<wgt id='scales2.02.0'>  0.755008482E+04 </wgt>
</rwgt>
<scales uborns=' 0.441640037E+03'> </scales>
</event>
<event>
      5  10001  2.12527E+03  3.03323E+01  7.29735E-03  1.52708E-01
      21    -1     0     0   512   514  0.000000000E+00  0.000000000E+00  2.830417836E+02  2.830417836E+02  0.000000000E+00  0.00000E+00  9.000E+00
       2    -1     0     0   513     0  0.000000000E+00  0.000000000E+00 -2.642497297E+03  2.642497297E+03  0.000000000E+00  0.00000E+00  9.000E+00
       2     1     1     2   512     0 -5.456477762E+02 -1.081806388E+02 -1.729238215E+03  1.816507460E+03  2.157918644E-05  0.00000E+00  9.000E+00
      21     1     1     2   513   514  5.752772279E+02  1.146724111E+02 -1.210413040E+02  5.989529598E+02  1.907348633E-06  0.00000E+00  9.000E+00
      22     1     1     2     0     0 -2.962945172E+01 -6.491772350E+00 -5.091759943E+02  5.100786613E+02  0.000000000E+00  0.00000E+00  9.000E+00
#rwgt            1         187   1.6373356431265352E-002        6024     2397219           0
<rwgt>
<wgt id='central'>  0.212527406E+04 </wgt>
<wgt id='sudakovwgt'>  0.319805014E-01 </wgt>
<wgt id='scales0.50.5'>  0.278834113E+04 </wgt>
<wgt id='scales0.51.0'>  0.251786009E+04 </wgt>
<wgt id='scales1.00.5'>  0.235357706E+04 </wgt>
<wgt id='scales1.02.0'>  0.192970916E+04 </wgt>
<wgt id='scales2.01.0'>  0.181871283E+04 </wgt>
<wgt id='scales2.02.0'>  0.165136044E+04 </wgt>
</rwgt>
<scales uborns=' 0.571322608E+03'> </scales>
</event>
<event>
      5  10001  1.08023E+06  2.79743E+02  7.29735E-03  1.06588E-01
       2    -1     0     0   515     0  0.000000000E+00  0.000000000E+00  9.277302512E+02  9.277302512E+02  0.000000000E+00  0.00000E+00  9.000E+00
      21    -1     0     0   511   512  0.000000000E+00  0.000000000E+00 -4.528743953E+01  4.528743953E+01  0.000000000E+00  0.00000E+00  9.000E+00
      22     1     1     2     0     0 -1.563501832E+01  2.210947849E+01  9.554000792E+01  9.930345387E+01  1.348699152E-06  0.00000E+00  9.000E+00
      21     1     1     2   515   512 -1.288847748E+02 -1.336921876E+02  5.028289566E+02  5.360241093E+02  9.344061824E-06  0.00000E+00  9.000E+00
       2     1     1     2   511     0  1.445197932E+02  1.115827091E+02  2.840738472E+02  3.376901275E+02  0.000000000E+00  0.00000E+00  9.000E+00
#rwgt            1         182   4.2070970393251516E-003        6024     2397978           0
<rwgt>
<wgt id='central'>  0.108023496E+07 </wgt>
<wgt id='sudakovwgt'>  0.523437473E-01 </wgt>
<wgt id='scales0.50.5'>  0.130465507E+07 </wgt>
<wgt id='scales0.51.0'>  0.131382214E+07 </wgt>
<wgt id='scales1.00.5'>  0.107269280E+07 </wgt>
<wgt id='scales1.02.0'>  0.107885245E+07 </wgt>
<wgt id='scales2.01.0'>  0.904505340E+06 </wgt>
<wgt id='scales2.02.0'>  0.903351884E+06 </wgt>
</rwgt>
<scales uborns=' 0.200458058E+03'> </scales>
</event>
<event>
      5  10001  5.56347E+06  4.26670E+01  7.29735E-03  1.43123E-01
       2    -1     0     0   512     0  0.000000000E+00  0.000000000E+00  1.799201905E+03  1.799201905E+03  0.000000000E+00  0.00000E+00  9.000E+00
       2    -1     0     0   511     0  0.000000000E+00  0.000000000E+00 -3.120273658E+02  3.120273658E+02  0.000000000E+00  0.00000E+00  9.000E+00
       2     1     1     2   511     0 -1.233423511E+02  8.948551711E+01  1.776234857E+03  1.782759452E+03  0.000000000E+00  0.00000E+00  9.000E+00
      22     1     1     2     0     0  3.141595435E+01 -3.854934631E+01 -1.124517032E+02  1.229569024E+02  3.015782986E-06  0.00000E+00  9.000E+00
       2     1     1     2   512     0  9.192639677E+01 -5.093617080E+01 -1.766086153E+02  2.055129167E+02  6.325959759E-06  0.00000E+00  9.000E+00
#rwgt            1          97   4.2443050662961315E-004        6024     2398238           0
<rwgt>
<wgt id='central'>  0.556346682E+07 </wgt>
<wgt id='sudakovwgt'>  0.265667516E-02 </wgt>
<wgt id='scales0.50.5'>  0.726348020E+07 </wgt>
<wgt id='scales0.51.0'>  0.682299467E+07 </wgt>
<wgt id='scales1.00.5'>  0.592264191E+07 </wgt>
<wgt id='scales1.02.0'>  0.524230903E+07 </wgt>
<wgt id='scales2.01.0'>  0.462704234E+07 </wgt>
<wgt id='scales2.02.0'>  0.435993829E+07 </wgt>
</rwgt>
<scales uborns=' 0.152460099E+03'> </scales>
</event>
<event>
      5  10001  8.20912E+02  5.54511E+00  7.29735E-03  2.30924E-01
       1    -1     0     0   511     0  0.000000000E+00  0.000000000E+00  1.233237675E+03  1.233237675E+03  0.000000000E+00  0.00000E+00  9.000E+00
       1    -1     0     0   512     0  0.000000000E+00  0.000000000E+00 -8.802172498E+02  8.802172498E+02  0.000000000E+00  0.00000E+00  9.000E+00
       1     1     1     2   512     0 -4.374957737E+02  5.068168301E+02  9.630756086E+02  1.172936690E+03  1.525878906E-05  0.00000E+00  9.000E+00
       1     1     1     2   511     0  4.425548944E+02 -5.090869771E+02 -6.280627137E+02  9.216762757E+02  7.629394531E-06  0.00000E+00  9.000E+00
      22     1     1     2     0     0 -5.059120671E+00  2.270147065E+00  1.800753036E+01  1.884195901E+01  2.384185791E-07  0.00000E+00  9.000E+00
#rwgt            1          91   4.0114585052441147E-004        6024     2417695           0
<rwgt>
<wgt id='central'>  0.820911694E+03 </wgt>
<wgt id='sudakovwgt'>  0.326118172E-01 </wgt>
<wgt id='scales0.50.5'>  0.105339826E+04 </wgt>
<wgt id='scales0.51.0'>  0.969217752E+03 </wgt>
<wgt id='scales1.00.5'>  0.892211548E+03 </wgt>
<wgt id='scales1.02.0'>  0.759062039E+03 </wgt>
<wgt id='scales2.01.0'>  0.704537516E+03 </wgt>
<wgt id='scales2.02.0'>  0.651455556E+03 </wgt>
</rwgt>
<scales uborns=' 0.672037767E+03'> </scales>
</event>
<event>
      4  10001  3.89479E+02  8.94427E-01  7.29735E-03  7.50823E-01
      21    -1     0     0   513   512  0.000000000E+00  0.000000000E+00  3.275245443E+02  3.275245443E+02  0.000000000E+00  0.00000E+00  9.000E+00
       1    -1     0     0   514     0  0.000000000E+00  0.000000000E+00 -2.692673717E+03  2.692673717E+03  0.000000000E+00  0.00000E+00  9.000E+00
       1     1     1     2   513     0  6.357649507E+02 -4.236902062E+02 -2.060686867E+03  2.197758137E+03  0.000000000E+00  0.00000E+00  9.000E+00
      21     1     1     2   514   512 -6.357649507E+02  4.236902062E+02 -3.044623059E+02  8.224401249E+02  6.607249480E-06  0.00000E+00  9.000E+00
#rwgt            1         186   4.1851342459785432E-003        6024     2422912           0
<rwgt>
<wgt id='central'>  0.389478985E+03 </wgt>
<wgt id='sudakovwgt'>  0.250384128E+01 </wgt>
<wgt id='scales0.50.5'>  0.525968335E+03 </wgt>
<wgt id='scales0.51.0'>  0.458640836E+03 </wgt>
<wgt id='scales1.00.5'>  0.446653688E+03 </wgt>
<wgt id='scales1.02.0'>  0.342488493E+03 </wgt>
<wgt id='scales2.01.0'>  0.335005317E+03 </wgt>
<wgt id='scales2.02.0'>  0.294587041E+03 </wgt>
</rwgt>
<scales uborns=' 0.764009466E+03'> </scales>
</event>
<event>
      5  10001  3.75619E+03  1.17882E+01  7.29735E-03  1.87844E-01
      21    -1     0     0   511   515  0.000000000E+00  0.000000000E+00  2.485364720E+02  2.485364720E+02  0.000000000E+00  0.00000E+00  9.000E+00
       2    -1     0     0   512     0  0.000000000E+00  0.000000000E+00 -2.501430850E+03  2.501430850E+03  0.000000000E+00  0.00000E+00  9.000E+00
       2     1     1     2   511     0 -5.220454890E+02 -4.431667033E+01 -1.585717327E+03  1.670028413E+03  2.157918644E-05  0.00000E+00  9.000E+00
      21     1     1     2   512   515  5.111445232E+02  4.880351145E+01 -1.131524568E+02  5.257889166E+02  1.314549327E-05  0.00000E+00  9.000E+00
      22     1     1     2     0     0  1.090096574E+01 -4.486841119E+00 -5.540245942E+02  5.541499921E+02  0.000000000E+00  0.00000E+00  9.000E+00
#rwgt            1         187   1.6336795151078574E-002        6024     2424563           0
<rwgt>
<wgt id='central'>  0.375618772E+04 </wgt>
<wgt id='sudakovwgt'>  0.947595046E-01 </wgt>
<wgt id='scales0.50.5'>  0.489412931E+04 </wgt>
<wgt id='scales0.51.0'>  0.445948195E+04 </wgt>
<wgt id='scales1.00.5'>  0.412229039E+04 </wgt>
<wgt id='scales1.02.0'>  0.343794428E+04 </wgt>
<wgt id='scales2.01.0'>  0.320867220E+04 </wgt>
<wgt id='scales2.02.0'>  0.293681530E+04 </wgt>
</rwgt>
<scales uborns=' 0.518674320E+03'> </scales>
</event>
<event>
      5  10001  1.53276E+02  7.13219E+00  7.29735E-03  2.14411E-01
       1    -1     0     0   511     0  0.000000000E+00  0.000000000E+00  1.257613858E+03  1.257613858E+03  0.000000000E+00  0.00000E+00  9.000E+00
       2    -1     0     0   513     0  0.000000000E+00  0.000000000E+00 -1.153292513E+03  1.153292513E+03  0.000000000E+00  0.00000E+00  9.000E+00
       1     1     1     2   513     0  8.824622119E+02  1.489415352E+02  8.505895416E+02  1.234676356E+03  1.868812365E-05  0.00000E+00  9.000E+00
       2     1     1     2   511     0 -8.892999323E+02 -1.509697557E+02 -7.397034141E+02  1.166536488E+03  2.412626389E-05  0.00000E+00  9.000E+00
      22     1     1     2     0     0  6.837720411E+00  2.028220410E+00 -6.564782771E+00  9.693527288E+00  1.460009660E-07  0.00000E+00  9.000E+00
#rwgt            1          96   1.9743372578902721E-003        6024     2425763           0
<rwgt>
<wgt id='central'>  0.153276020E+03 </wgt>
<wgt id='sudakovwgt'>  0.141393242E+00 </wgt>
<wgt id='scales0.50.5'>  0.195348687E+03 </wgt>
<wgt id='scales0.51.0'>  0.179919523E+03 </wgt>
<wgt id='scales1.00.5'>  0.166420324E+03 </wgt>
<wgt id='scales1.02.0'>  0.141855855E+03 </wgt>
<wgt id='scales2.01.0'>  0.132195152E+03 </wgt>
<wgt id='scales2.02.0'>  0.122345679E+03 </wgt>
</rwgt>
<scales uborns=' 0.898479235E+03'> </scales>
</event>
<event>
      5  10001  1.63646E+00  1.77814E+01  7.29735E-03  1.70695E-01
       1    -1     0     0   513     0  0.000000000E+00  0.000000000E+00  1.975041337E+03  1.975041337E+03  0.000000000E+00  0.00000E+00  9.000E+00
       2    -1     0     0   512     0  0.000000000E+00  0.000000000E+00 -2.371336214E+03  2.371336214E+03  0.000000000E+00  0.00000E+00  9.000E+00
       1     1     1     2   512     0 -1.172805329E+03 -1.754733352E+03  2.723780017E+02  2.128086289E+03  4.672030912E-05  0.00000E+00  9.000E+00
       2     1     1     2   513     0  1.156264720E+03  1.733924968E+03 -6.422450412E+02  2.180807784E+03  4.382753484E-05  0.00000E+00  9.000E+00
      22     1     1     2     0     0  1.654060898E+01  2.080838440E+01 -2.642783743E+01  3.748347900E+01  3.371747881E-07  0.00000E+00  9.000E+00
#rwgt            1          96   2.3084263048307315E-003        6024     2457189           0
<rwgt>
<wgt id='central'>  0.163645806E+01 </wgt>
<wgt id='sudakovwgt'>  0.403215252E-02 </wgt>
<wgt id='scales0.50.5'>  0.215346991E+01 </wgt>
<wgt id='scales0.51.0'>  0.189249237E+01 </wgt>
<wgt id='scales1.00.5'>  0.186213029E+01 </wgt>
<wgt id='scales1.02.0'>  0.144982161E+01 </wgt>
<wgt id='scales2.01.0'>  0.142951530E+01 </wgt>
<wgt id='scales2.02.0'>  0.126647897E+01 </wgt>
</rwgt>
<scales uborns=' 0.211274075E+04'> </scales>
</event>
<event>
      5  10001  6.27899E+02  8.60919E+00  7.29735E-03  2.03588E-01
      21    -1     0     0   511   512  0.000000000E+00  0.000000000E+00  8.985936075E+02  8.985936075E+02  0.000000000E+00  0.00000E+00  9.000E+00
       2    -1     0     0   514     0  0.000000000E+00  0.000000000E+00 -3.512162707E+03  3.512162707E+03  0.000000000E+00  0.00000E+00  9.000E+00
       2     1     1     2   511     0  2.206066730E+01  6.990287924E+02 -3.259085803E+03  3.333281896E+03  6.103515625E-05  0.00000E+00  9.000E+00
      21     1     1     2   514   512 -2.173227092E+01 -7.076317211E+02  7.157391995E+02  1.006726152E+03  0.000000000E+00  0.00000E+00  9.000E+00
      22     1     1     2     0     0 -3.283963817E-01  8.602928721E+00 -7.022249675E+01  7.074826695E+01  1.348699152E-06  0.00000E+00  9.000E+00
#rwgt            1         187   1.8865730458345289E-002        6024     2487885           0
<rwgt>
<wgt id='central'>  0.627899191E+03 </wgt>
<wgt id='sudakovwgt'>  0.550141148E-01 </wgt>
<wgt id='scales0.50.5'>  0.883526761E+03 </wgt>
<wgt id='scales0.51.0'>  0.740632741E+03 </wgt>
<wgt id='scales1.00.5'>  0.749042729E+03 </wgt>
<wgt id='scales1.02.0'>  0.533102679E+03 </wgt>
<wgt id='scales2.01.0'>  0.539317971E+03 </wgt>
<wgt id='scales2.02.0'>  0.457895068E+03 </wgt>
</rwgt>
<scales uborns=' 0.703668922E+03'> </scales>
</event>
<event>
      5  10001  3.08303E+02  4.03036E+01  7.29735E-03  1.44637E-01
       2    -1     0     0   515     0  0.000000000E+00  0.000000000E+00  3.488767757E+03  3.488767757E+03  0.000000000E+00  0.00000E+00  9.000E+00
      21    -1     0     0   511   515  0.000000000E+00  0.000000000E+00 -6.445973264E+02  6.445973264E+02  0.000000000E+00  0.00000E+00  9.000E+00
       2     1     1     2   513     0  3.810455524E+02  6.016787592E+02  2.971706112E+03  3.055855078E+03  4.315837288E-05  0.00000E+00  9.000E+00
      21     1     1     2   511   513 -4.421431626E+02 -6.591557265E+02 -3.290641765E+02  8.592206238E+02  2.123933549E-05  0.00000E+00  9.000E+00
      22     1     1     2     0     0  6.109761029E+01  5.747696738E+01  2.015284946E+02  2.182893811E+02  0.000000000E+00  0.00000E+00  9.000E+00
#rwgt            1         182   1.2215059134659031E-002        6024     2489839           0
<rwgt>
<wgt id='central'>  0.308302835E+03 </wgt>
<wgt id='sudakovwgt'>  0.941278837E-03 </wgt>
<wgt id='scales0.50.5'>  0.426724659E+03 </wgt>
<wgt id='scales0.51.0'>  0.362757042E+03 </wgt>
<wgt id='scales1.00.5'>  0.362668336E+03 </wgt>
<wgt id='scales1.02.0'>  0.265051017E+03 </wgt>
<wgt id='scales2.01.0'>  0.265364133E+03 </wgt>
<wgt id='scales2.02.0'>  0.228136065E+03 </wgt>
</rwgt>
<scales uborns=' 0.795535039E+03'> </scales>
</event>
<event>
      5  10001  3.12396E+02  1.34154E+02  7.29735E-03  1.18348E-01
       2    -1     0     0   512     0  0.000000000E+00  0.000000000E+00  3.122205069E+03  3.122205069E+03  0.000000000E+00  0.00000E+00  9.000E+00
      -2    -1     0     0     0   512  0.000000000E+00  0.000000000E+00 -9.487167071E+02  9.487167071E+02  0.000000000E+00  0.00000E+00  9.000E+00
      22     1     1     2     0     0  3.145271942E+02 -2.384263184E+02  1.238278147E+03  1.299656583E+03  1.525878906E-05  0.00000E+00  9.000E+00
      -2     1     1     2     0   511 -6.624663157E+02  4.354725800E+02 -7.184840771E+02  1.069914649E+03  7.629394531E-06  0.00000E+00  9.000E+00
       2     1     1     2   511     0  3.479391214E+02 -1.970462617E+02  1.653694292E+03  1.701350544E+03  0.000000000E+00  0.00000E+00  9.000E+00
#rwgt            1          47   6.5717109432564876E-004        6024     2492566           0
<rwgt>
<wgt id='central'>  0.312396236E+03 </wgt>
<wgt id='sudakovwgt'>  0.691522827E-03 </wgt>
<wgt id='scales0.50.5'>  0.419211845E+03 </wgt>
<wgt id='scales0.51.0'>  0.367589656E+03 </wgt>
<wgt id='scales1.00.5'>  0.356267107E+03 </wgt>
<wgt id='scales1.02.0'>  0.276351541E+03 </wgt>
<wgt id='scales2.01.0'>  0.268876741E+03 </wgt>
<wgt id='scales2.02.0'>  0.237853563E+03 </wgt>
</rwgt>
<scales uborns=' 0.793719268E+03'> </scales>
</event>
<event>
      5  10001  1.99236E+02  1.03607E+01  7.29735E-03  1.93995E-01
       1    -1     0     0   512     0  0.000000000E+00  0.000000000E+00  1.019619954E+03  1.019619954E+03  0.000000000E+00  0.00000E+00  9.000E+00
       1    -1     0     0   511     0  0.000000000E+00  0.000000000E+00 -1.752729859E+03  1.752729859E+03  0.000000000E+00  0.00000E+00  9.000E+00
       1     1     1     2   511     0  3.921784768E+02 -7.592087758E+02  6.163726130E+02  1.053620957E+03  7.629394531E-06  0.00000E+00  9.000E+00
       1     1     1     2   512     0 -4.019983794E+02  7.625122704E+02 -1.412564923E+03  1.654801293E+03  0.000000000E+00  0.00000E+00  9.000E+00
      22     1     1     2     0     0  9.819902523E+00 -3.303494612E+00  6.308240465E+01  6.392756322E+01  9.536743164E-07  0.00000E+00  9.000E+00
#rwgt            1          91   4.8970429505368557E-004        6024     2496492           0
<rwgt>
<wgt id='central'>  0.199236386E+03 </wgt>
<wgt id='sudakovwgt'>  0.313423757E-01 </wgt>
<wgt id='scales0.50.5'>  0.259250710E+03 </wgt>
<wgt id='scales0.51.0'>  0.234076370E+03 </wgt>
<wgt id='scales1.00.5'>  0.220663343E+03 </wgt>
<wgt id='scales1.02.0'>  0.181046932E+03 </wgt>
<wgt id='scales2.01.0'>  0.171704580E+03 </wgt>
<wgt id='scales2.02.0'>  0.156028967E+03 </wgt>
</rwgt>
<scales uborns=' 0.858243450E+03'> </scales>
</event>
<event>
      5  10001  9.41326E+00  9.09426E+00  7.29735E-03  2.00647E-01
       2    -1     0     0   511     0  0.000000000E+00  0.000000000E+00  1.705074671E+03  1.705074671E+03  0.000000000E+00  0.00000E+00  9.000E+00
      21    -1     0     0   513   514  0.000000000E+00  0.000000000E+00 -2.218198013E+03  2.218198013E+03  0.000000000E+00  0.00000E+00  9.000E+00
       2     1     1     2   513     0 -7.369807219E+02 -1.294357834E+03  9.664912667E+02  1.775558547E+03  2.642899792E-05  0.00000E+00  9.000E+00
      21     1     1     2   511   514  7.288555295E+02  1.298442786E+03 -1.507188572E+03  2.118679174E+03  3.737624730E-05  0.00000E+00  9.000E+00
      22     1     1     2     0     0  8.125192471E+00 -4.084952715E+00  2.757396310E+01  2.903496224E+01  4.768371582E-07  0.00000E+00  9.000E+00
#rwgt            1         182   3.9011664561076319E-003        6024     2500445           0
<rwgt>
<wgt id='central'>  0.941326484E+01 </wgt>
<wgt id='sudakovwgt'>  0.175051374E+00 </wgt>
<wgt id='scales0.50.5'>  0.129823331E+02 </wgt>
<wgt id='scales0.51.0'>  0.109487002E+02 </wgt>
<wgt id='scales1.00.5'>  0.111616972E+02 </wgt>
<wgt id='scales1.02.0'>  0.803725600E+01 </wgt>
<wgt id='scales2.01.0'>  0.818236510E+01 </wgt>
<wgt id='scales2.02.0'>  0.698628986E+01 </wgt>
</rwgt>
<scales uborns=' 0.148923561E+04'> </scales>
</event>
<event>
      5  10001  2.63827E+07  8.72713E+01  7.29735E-03  1.26547E-01
       2    -1     0     0   513     0  0.000000000E+00  0.000000000E+00  9.628378603E+02  9.628378603E+02  0.000000000E+00  0.00000E+00  9.000E+00
      21    -1     0     0   512   515  0.000000000E+00  0.000000000E+00 -5.704353057E+01  5.704353057E+01  0.000000000E+00  0.00000E+00  9.000E+00
       2     1     1     2   512     0 -6.182926513E+01  5.933058033E+01  3.656792690E+02  3.755852814E+02  0.000000000E+00  0.00000E+00  9.000E+00
      21     1     1     2   513   515  9.173374232E+01 -6.791747704E+01  1.144579301E+01  1.147121151E+02  0.000000000E+00  0.00000E+00  9.000E+00
      22     1     1     2     0     0 -2.990447719E+01  8.586896714E+00  5.286692676E+02  5.295839944E+02  7.629394531E-06  0.00000E+00  9.000E+00
#rwgt            1         182   9.8843924744583048E-003        6024     2507008           0
<rwgt>
<wgt id='central'>  0.263827125E+08 </wgt>
<wgt id='sudakovwgt'>  0.860963883E-01 </wgt>
<wgt id='scales0.50.5'>  0.324684424E+08 </wgt>
<wgt id='scales0.51.0'>  0.326346889E+08 </wgt>
<wgt id='scales1.00.5'>  0.262483021E+08 </wgt>
<wgt id='scales1.02.0'>  0.262644635E+08 </wgt>
<wgt id='scales2.01.0'>  0.217905547E+08 </wgt>
<wgt id='scales2.02.0'>  0.216928984E+08 </wgt>
</rwgt>
<scales uborns=' 0.117588870E+03'> </scales>
</event>
<event>
      5  10001  3.58522E+00  1.32905E+01  7.29735E-03  1.82481E-01
       2    -1     0     0   512     0  0.000000000E+00  0.000000000E+00  2.581809594E+03  2.581809594E+03  0.000000000E+00  0.00000E+00  9.000E+00
       5    -1     0     0   511     0  0.000000000E+00  0.000000000E+00 -1.862996549E+03  1.862996549E+03  0.000000000E+00  0.00000E+00  9.000E+00
       2     1     1     2   511     0  1.738769964E+03 -4.462157342E+02  1.595481722E+03  2.401664297E+03  3.051757812E-05  0.00000E+00  9.000E+00
       5     1     1     2   512     0 -1.745740747E+03  4.349000039E+02 -9.034834361E+02  2.013214119E+03  5.810373769E-05  0.00000E+00  9.000E+00
      22     1     1     2     0     0  6.970783248E+00  1.131573030E+01  2.681475870E+01  2.992772721E+01  0.000000000E+00  0.00000E+00  9.000E+00
#rwgt            1         112   4.4484996290479217E-005        6024     2507757           0
<rwgt>
<wgt id='central'>  0.358521551E+01 </wgt>
<wgt id='sudakovwgt'>  0.139624897E+00 </wgt>
<wgt id='scales0.50.5'>  0.452413639E+01 </wgt>
<wgt id='scales0.51.0'>  0.415694146E+01 </wgt>
<wgt id='scales1.00.5'>  0.390191308E+01 </wgt>
<wgt id='scales1.02.0'>  0.329466401E+01 </wgt>
<wgt id='scales2.01.0'>  0.312482996E+01 </wgt>
<wgt id='scales2.02.0'>  0.287158524E+01 </wgt>
</rwgt>
<scales uborns=' 0.179709273E+04'> </scales>
</event>
<event>
      5  10001  5.60280E+02  3.77891E+01  7.29735E-03  1.46388E-01
      21    -1     0     0   513   511  0.000000000E+00  0.000000000E+00  2.491359174E+02  2.491359174E+02  0.000000000E+00  0.00000E+00  9.000E+00
       2    -1     0     0   514     0  0.000000000E+00  0.000000000E+00 -3.285907504E+03  3.285907504E+03  0.000000000E+00  0.00000E+00  9.000E+00
       2     1     1     2   513     0  4.401337098E+02 -5.805304642E+02 -5.099371308E+02  8.892520339E+02  1.427329020E-05  0.00000E+00  9.000E+00
      21     1     1     2   514   511 -4.512547986E+02  5.444148130E+02 -2.070974667E+03  2.188367988E+03  6.103515625E-05  0.00000E+00  9.000E+00
      22     1     1     2     0     0  1.112108882E+01  3.611565119E+01 -4.558597889E+02  4.574233990E+02  5.394796609E-06  0.00000E+00  9.000E+00
#rwgt            1         187   1.7613108775206110E-003        6024     2512812           0
<rwgt>
<wgt id='central'>  0.560279719E+03 </wgt>
<wgt id='sudakovwgt'>  0.451984405E-01 </wgt>
<wgt id='scales0.50.5'>  0.740465979E+03 </wgt>
<wgt id='scales0.51.0'>  0.660608817E+03 </wgt>
<wgt id='scales1.00.5'>  0.628008994E+03 </wgt>
<wgt id='scales1.02.0'>  0.503063153E+03 </wgt>
<wgt id='scales2.01.0'>  0.481401166E+03 </wgt>
<wgt id='scales2.02.0'>  0.432239574E+03 </wgt>
</rwgt>
<scales uborns=' 0.717589662E+03'> </scales>
</event>
<event>
      5  10001  3.30649E+01  8.72641E+01  7.29735E-03  1.26549E-01
       1    -1     0     0   515     0  0.000000000E+00  0.000000000E+00  1.959613395E+03  1.959613395E+03  0.000000000E+00  0.00000E+00  9.000E+00
      21    -1     0     0   513   515  0.000000000E+00  0.000000000E+00 -1.363355162E+03  1.363355162E+03  0.000000000E+00  0.00000E+00  9.000E+00
       1     1     1     2   512     0  8.841815010E+02  7.893429558E+02  1.078222047E+03  1.602311459E+03  4.037096117E-05  0.00000E+00  9.000E+00
      21     1     1     2   513   512 -9.330851371E+02 -7.170694364E+02 -7.788675307E+02  1.411194912E+03  1.078959322E-05  0.00000E+00  9.000E+00
      22     1     1     2     0     0  4.890363603E+01 -7.227351946E+01  2.969037168E+02  3.094621856E+02  3.814697266E-06  0.00000E+00  9.000E+00
#rwgt            1         181   2.4898510461653276E-003        6024     2513413           0
<rwgt>
<wgt id='central'>  0.330649427E+02 </wgt>
<wgt id='sudakovwgt'>  0.246268381E-01 </wgt>
<wgt id='scales0.50.5'>  0.449234018E+02 </wgt>
<wgt id='scales0.51.0'>  0.386155938E+02 </wgt>
<wgt id='scales1.00.5'>  0.384660093E+02 </wgt>
<wgt id='scales1.02.0'>  0.287203573E+02 </wgt>
<wgt id='scales2.01.0'>  0.286410611E+02 </wgt>
<wgt id='scales2.02.0'>  0.248777860E+02 </wgt>
</rwgt>
<scales uborns=' 0.118022157E+04'> </scales>
</event>
<event>
      5  10001  3.59022E+01  2.50076E+02  7.29735E-03  1.08226E-01
       1    -1     0     0   512     0  0.000000000E+00  0.000000000E+00  7.626244841E+02  7.626244841E+02  0.000000000E+00  0.00000E+00  9.000E+00
       2    -1     0     0   511     0  0.000000000E+00  0.000000000E+00 -1.808563576E+03  1.808563576E+03  0.000000000E+00  0.00000E+00  9.000E+00
       1     1     1     2   511     0 -7.702420977E+02 -8.100514992E+02 -3.291130674E+02  1.165234625E+03  1.705984480E-05  0.00000E+00  9.000E+00
       2     1     1     2   512     0  7.020862389E+02  6.289318553E+02 -3.776037601E+02  1.015413692E+03  3.051757812E-05  0.00000E+00  9.000E+00
      22     1     1     2     0     0  6.815585874E+01  1.811196439E+02 -3.392222639E+02  3.905397430E+02  6.607249480E-06  0.00000E+00  9.000E+00
#rwgt            1          96   1.4436419964554794E-003        6024     2513510           0
<rwgt>
<wgt id='central'>  0.359022474E+02 </wgt>
<wgt id='sudakovwgt'>  0.133147470E-02 </wgt>
<wgt id='scales0.50.5'>  0.455192881E+02 </wgt>
<wgt id='scales0.51.0'>  0.419404893E+02 </wgt>
<wgt id='scales1.00.5'>  0.389657491E+02 </wgt>
<wgt id='scales1.02.0'>  0.332376176E+02 </wgt>
<wgt id='scales2.01.0'>  0.310916051E+02 </wgt>
<wgt id='scales2.02.0'>  0.287840544E+02 </wgt>
</rwgt>
<scales uborns=' 0.116276902E+04'> </scales>
</event>
<event>
      5  10001  2.91196E+01  1.29505E+02  7.29735E-03  1.18980E-01
       2    -1     0     0   513     0  0.000000000E+00  0.000000000E+00  1.265276276E+03  1.265276276E+03  0.000000000E+00  0.00000E+00  9.000E+00
       2    -1     0     0   511     0  0.000000000E+00  0.000000000E+00 -2.424229795E+03  2.424229795E+03  0.000000000E+00  0.00000E+00  9.000E+00
       2     1     1     2   513     0 -5.254507095E+02  1.076414081E+03 -1.899654755E+03  2.245763547E+03  0.000000000E+00  0.00000E+00  9.000E+00
       2     1     1     2   511     0  4.550919567E+02 -8.534887954E+02  7.262309716E+02  1.209530172E+03  1.525878906E-05  0.00000E+00  9.000E+00
      22     1     1     2     0     0  7.035875278E+01 -2.229252857E+02  1.447026376E+01  2.342123516E+02  7.282507109E-06  0.00000E+00  9.000E+00
#rwgt            1          97   4.9787529863776440E-003        6024     2533074           0
<rwgt>
<wgt id='central'>  0.291196224E+02 </wgt>
<wgt id='sudakovwgt'>  0.974700933E-03 </wgt>
<wgt id='scales0.50.5'>  0.377734816E+02 </wgt>
<wgt id='scales0.51.0'>  0.339938778E+02 </wgt>
<wgt id='scales1.00.5'>  0.323572580E+02 </wgt>
<wgt id='scales1.02.0'>  0.263833694E+02 </wgt>
<wgt id='scales2.01.0'>  0.252325516E+02 </wgt>
<wgt id='scales2.02.0'>  0.228615685E+02 </wgt>
</rwgt>
<scales uborns=' 0.120775812E+04'> </scales>
</event>
<event>
      5  10001  2.38212E+02  5.46513E+01  7.29735E-03  1.36907E-01
      21    -1     0     0   512   514  0.000000000E+00  0.000000000E+00  5.075644005E+02  5.075644005E+02  0.000000000E+00  0.00000E+00  9.000E+00
       2    -1     0     0   513     0  0.000000000E+00  0.000000000E+00 -1.850657437E+03  1.850657437E+03  0.000000000E+00  0.00000E+00  9.000E+00
       2     1     1     2   512     0 -8.803508702E+01  4.169509438E+02 -6.655971108E+02  7.903276409E+02  1.321449896E-05  0.00000E+00  9.000E+00
      21     1     1     2   513   514  1.191984404E+02 -8.226617059E+02 -6.663839418E+01  8.339191964E+02  1.078959322E-05  0.00000E+00  9.000E+00
      22     1     1     2     0     0 -3.116335336E+01  4.057107621E+02 -6.108575320E+02  7.339750006E+02  7.629394531E-06  0.00000E+00  9.000E+00
#rwgt            1         187   1.2648923750605915E-002        6024     2546984           0
<rwgt>
<wgt id='central'>  0.238211922E+03 </wgt>
<wgt id='sudakovwgt'>  0.613718128E-01 </wgt>
<wgt id='scales0.50.5'>  0.312751138E+03 </wgt>
<wgt id='scales0.51.0'>  0.280038491E+03 </wgt>
<wgt id='scales1.00.5'>  0.266038693E+03 </wgt>
<wgt id='scales1.02.0'>  0.214749912E+03 </wgt>
<wgt id='scales2.01.0'>  0.205188739E+03 </wgt>
<wgt id='scales2.02.0'>  0.184979193E+03 </wgt>
</rwgt>
<scales uborns=' 0.831956866E+03'> </scales>
</event>
<event>
      5  10001  2.05571E+03  9.48140E+02  7.29735E-03  9.15497E-02
       2    -1     0     0   515     0  0.000000000E+00  0.000000000E+00  1.775834374E+03  1.775834374E+03  0.000000000E+00  0.00000E+00  9.000E+00
      21    -1     0     0   512   515  0.000000000E+00  0.000000000E+00 -1.859271759E+02  1.859271759E+02  0.000000000E+00  0.00000E+00  9.000E+00
      22     1     1     2     0     0  1.505202027E+01 -1.850969755E+00  1.263541396E+02  1.272609838E+02  2.336015456E-06  0.00000E+00  9.000E+00
      21     1     1     2   512   511  5.420092218E+02  5.723332155E+01  7.655311016E+02  9.397273632E+02  2.157918644E-05  0.00000E+00  9.000E+00
       2     1     1     2   511     0 -5.570612421E+02 -5.538235179E+01  6.980219566E+02  8.947732026E+02  2.018548058E-05  0.00000E+00  9.000E+00
#rwgt            1         182   8.2595241981479189E-003        6024     2547774           0
<rwgt>
<wgt id='central'>  0.205570767E+04 </wgt>
<wgt id='sudakovwgt'>  0.604646349E-01 </wgt>
<wgt id='scales0.50.5'>  0.262885703E+04 </wgt>
<wgt id='scales0.51.0'>  0.243515282E+04 </wgt>
<wgt id='scales1.00.5'>  0.221923143E+04 </wgt>
<wgt id='scales1.02.0'>  0.190954702E+04 </wgt>
<wgt id='scales2.01.0'>  0.175936735E+04 </wgt>
<wgt id='scales2.02.0'>  0.163427462E+04 </wgt>
</rwgt>
<scales uborns=' 0.574565790E+03'> </scales>
</event>
<event>
      5  10001  1.98450E+02  6.08307E+01  7.29735E-03  1.34385E-01
       1    -1     0     0   513     0  0.000000000E+00  0.000000000E+00  1.462647400E+03  1.462647400E+03  0.000000000E+00  0.00000E+00  9.000E+00
       3    -1     0     0   511     0  0.000000000E+00  0.000000000E+00 -1.000627256E+03  1.000627256E+03  0.000000000E+00  0.00000E+00  9.000E+00
       1     1     1     2   511     0 -7.981583141E+02 -3.028034317E+02  9.838673010E+02  1.302590296E+03  2.157918644E-05  0.00000E+00  9.000E+00
       3     1     1     2   513     0  7.855357187E+02  3.623100696E+02 -6.064632789E+02  1.056471798E+03  0.000000000E+00  0.00000E+00  9.000E+00
      22     1     1     2     0     0  1.262259542E+01 -5.950663789E+01  8.461612245E+01  1.042125618E+02  0.000000000E+00  0.00000E+00  9.000E+00
#rwgt            1         101   1.1963383285450025E-004        6024     2548239           0
<rwgt>
<wgt id='central'>  0.198450205E+03 </wgt>
<wgt id='sudakovwgt'>  0.251971803E-01 </wgt>
<wgt id='scales0.50.5'>  0.254894158E+03 </wgt>
<wgt id='scales0.51.0'>  0.233149790E+03 </wgt>
<wgt id='scales1.00.5'>  0.216958143E+03 </wgt>
<wgt id='scales1.02.0'>  0.182398225E+03 </wgt>
<wgt id='scales2.01.0'>  0.171029142E+03 </wgt>
<wgt id='scales2.02.0'>  0.157195323E+03 </wgt>
</rwgt>
<scales uborns=' 0.858835258E+03'> </scales>
</event>
<event>
      5  10001  4.77936E+00  1.33099E+03  7.29735E-03  8.81063E-02
      21    -1     0     0   511   514  0.000000000E+00  0.000000000E+00  1.676515809E+03  1.676515809E+03  0.000000000E+00  0.00000E+00  9.000E+00
       2    -1     0     0   514     0  0.000000000E+00  0.000000000E+00 -2.030276889E+03  2.030276889E+03  0.000000000E+00  0.00000E+00  9.000E+00
       2     1     1     2   512     0  3.154671598E+02 -8.236725758E+02  1.075127781E+02  8.885465877E+02  1.531827774E-05  0.00000E+00  9.000E+00
      21     1     1     2   511   512 -1.004834048E+03  1.142435565E+03  4.923412974E+02  1.599140531E+03  3.411968960E-05  0.00000E+00  9.000E+00
      22     1     1     2     0     0  6.893668884E+02 -3.187629888E+02 -9.536151550E+02  1.219105579E+03  2.642899792E-05  0.00000E+00  9.000E+00
#rwgt            1         187   5.8544897843175424E-003        6024     2548507           0
<rwgt>
<wgt id='central'>  0.477936158E+01 </wgt>
<wgt id='sudakovwgt'>  0.740065924E-03 </wgt>
<wgt id='scales0.50.5'>  0.648097939E+01 </wgt>
<wgt id='scales0.51.0'>  0.554671616E+01 </wgt>
<wgt id='scales1.00.5'>  0.558437331E+01 </wgt>
<wgt id='scales1.02.0'>  0.413428273E+01 </wgt>
<wgt id='scales2.01.0'>  0.416226221E+01 </wgt>
<wgt id='scales2.02.0'>  0.360047554E+01 </wgt>
</rwgt>
<scales uborns=' 0.169743286E+04'> </scales>
</event>
<event>
      5  10001  6.84124E+02  1.29911E+00  7.29735E-03  5.00129E-01
      21    -1     0     0   512   514  0.000000000E+00  0.000000000E+00  1.082401234E+03  1.082401234E+03  0.000000000E+00  0.00000E+00  9.000E+00
      -2    -1     0     0     0   513  0.000000000E+00  0.000000000E+00 -8.658383760E+02  8.658383760E+02  0.000000000E+00  0.00000E+00  9.000E+00
      -2     1     1     2     0   514  6.390442637E+02 -1.583987370E+02 -5.412444204E+02  8.522988053E+02  2.642899792E-05  0.00000E+00  9.000E+00
      21     1     1     2   512   513 -6.728655624E+02  1.673930591E+02  7.880675703E+02  1.049675663E+03  1.868812365E-05  0.00000E+00  9.000E+00
      22     1     1     2     0     0  3.382129863E+01 -8.994322088E+00 -3.026029220E+01  4.626514190E+01  3.371747881E-07  0.00000E+00  9.000E+00
#rwgt            1         197   5.3271418184143242E-004        6024     2548693           0
<rwgt>
<wgt id='central'>  0.684123901E+03 </wgt>
<wgt id='sudakovwgt'>  0.169560231E+00 </wgt>
<wgt id='scales0.50.5'>  0.916158041E+03 </wgt>
<wgt id='scales0.51.0'>  0.807196447E+03 </wgt>
<wgt id='scales1.00.5'>  0.776472327E+03 </wgt>
<wgt id='scales1.02.0'>  0.607835092E+03 </wgt>
<wgt id='scales2.01.0'>  0.587460976E+03 </wgt>
<wgt id='scales2.02.0'>  0.521951278E+03 </wgt>
</rwgt>
<scales uborns=' 0.693380459E+03'> </scales>
</event>
<event>
      4  10001  6.58683E+03  8.94427E-01  7.29735E-03  7.49289E-01
      21    -1     0     0   511   514  0.000000000E+00  0.000000000E+00  3.380721086E+02  3.380721086E+02  0.000000000E+00  0.00000E+00  9.000E+00
       1    -1     0     0   515     0  0.000000000E+00  0.000000000E+00 -9.752096637E+02  9.752096637E+02  0.000000000E+00  0.00000E+00  9.000E+00
       1     1     1     2   511     0 -4.209932330E+02  2.126403483E+02 -6.930694382E+02  8.383295689E+02  1.078959322E-05  0.00000E+00  9.000E+00
      21     1     1     2   515   514  4.209932330E+02 -2.126403483E+02  5.593188313E+01  4.749522034E+02  6.180515955E-06  0.00000E+00  9.000E+00
#rwgt            1         186   4.5113834158918200E-003        6024     2555397           0
<rwgt>
<wgt id='central'>  0.658682916E+04 </wgt>
<wgt id='sudakovwgt'>  0.303130671E+01 </wgt>
<wgt id='scales0.50.5'>  0.852012967E+04 </wgt>
<wgt id='scales0.51.0'>  0.783683047E+04 </wgt>
<wgt id='scales1.00.5'>  0.716114071E+04 </wgt>
<wgt id='scales1.02.0'>  0.608281482E+04 </wgt>
<wgt id='scales2.01.0'>  0.561664891E+04 </wgt>
<wgt id='scales2.02.0'>  0.518687065E+04 </wgt>
</rwgt>
<scales uborns=' 0.471647347E+03'> </scales>
</event>
<event>
      5  10001  3.20421E+01  1.34508E+00  7.29735E-03  4.85393E-01
      21    -1     0     0   513   514  0.000000000E+00  0.000000000E+00  1.217908051E+03  1.217908051E+03  0.000000000E+00  0.00000E+00  9.000E+00
       1    -1     0     0   514     0  0.000000000E+00  0.000000000E+00 -1.198926699E+03  1.198926699E+03  0.000000000E+00  0.00000E+00  9.000E+00
       1     1     1     2   512     0  9.549198549E+02  7.056963393E+02 -1.803935397E+02  1.201008360E+03  6.607249480E-06  0.00000E+00  9.000E+00
      21     1     1     2   513   512 -9.536194822E+02 -7.060402541E+02  2.101148100E+02  1.205002569E+03  2.803218547E-05  0.00000E+00  9.000E+00
      22     1     1     2     0     0 -1.300372662E+00  3.439148461E-01 -1.073991873E+01  1.082382099E+01  1.192092896E-07  0.00000E+00  9.000E+00
#rwgt            1         186   1.8254497940222818E-003        6024     2556882           0
<rwgt>
<wgt id='central'>  0.320421330E+02 </wgt>
<wgt id='sudakovwgt'>  0.604063427E-01 </wgt>
<wgt id='scales0.50.5'>  0.426711940E+02 </wgt>
<wgt id='scales0.51.0'>  0.374172516E+02 </wgt>
<wgt id='scales1.00.5'>  0.365412907E+02 </wgt>
<wgt id='scales1.02.0'>  0.283448032E+02 </wgt>
<wgt id='scales2.01.0'>  0.277575373E+02 </wgt>
<wgt id='scales2.02.0'>  0.245546307E+02 </wgt>
</rwgt>
<scales uborns=' 0.118696271E+04'> </scales>
</event>
<event>
      5  10001  5.63778E+05  6.75487E+00  7.29735E-03  2.17765E-01
      21    -1     0     0   512   514  0.000000000E+00  0.000000000E+00  7.511932597E+01  7.511932597E+01  0.000000000E+00  0.00000E+00  9.000E+00
       1    -1     0     0   514     0  0.000000000E+00  0.000000000E+00 -6.648633187E+02  6.648633187E+02  0.000000000E+00  0.00000E+00  9.000E+00
       1     1     1     2   511     0 -1.022334460E+02  3.089959691E+01 -1.479770522E+02  1.824929329E+02  3.814697266E-06  0.00000E+00  9.000E+00
      21     1     1     2   512   511  2.137395137E+02 -6.507258115E+01 -2.914331290E+02  3.672223975E+02  5.394796609E-06  0.00000E+00  9.000E+00
      22     1     1     2     0     0 -1.115060677E+02  3.417298425E+01 -1.503338115E+02  1.902673142E+02  2.697398305E-06  0.00000E+00  9.000E+00
#rwgt            1         186   2.7389057049306367E-003        6024     2558247           0
<rwgt>
<wgt id='central'>  0.563777851E+06 </wgt>
<wgt id='sudakovwgt'>  0.334301691E-01 </wgt>
<wgt id='scales0.50.5'>  0.690926291E+06 </wgt>
<wgt id='scales0.51.0'>  0.683562452E+06 </wgt>
<wgt id='scales1.00.5'>  0.569851432E+06 </wgt>
<wgt id='scales1.02.0'>  0.554558902E+06 </wgt>
<wgt id='scales2.01.0'>  0.473269778E+06 </wgt>
<wgt id='scales2.02.0'>  0.465530703E+06 </wgt>
</rwgt>
<scales uborns=' 0.223472418E+03'> </scales>
</event>
<event>
      5  10001  3.10384E+06  1.72161E+01  7.29735E-03  1.71925E-01
       2    -1     0     0   512     0  0.000000000E+00  0.000000000E+00  9.494037426E+02  9.494037426E+02  0.000000000E+00  0.00000E+00  9.000E+00
      21    -1     0     0   511   512  0.000000000E+00  0.000000000E+00 -5.622696699E+01  5.622696699E+01  0.000000000E+00  0.00000E+00  9.000E+00
       2     1     1     2   513     0  2.819083315E+01 -1.099793986E+02  5.534169937E+02  5.649429706E+02  0.000000000E+00  0.00000E+00  9.000E+00
      21     1     1     2   511   513 -5.723975280E+01  1.574614528E+02  1.012312608E+02  1.957505213E+02  2.697398305E-06  0.00000E+00  9.000E+00
      22     1     1     2     0     0  2.904891965E+01 -4.748205425E+01  2.385285211E+02  2.449372177E+02  3.814697266E-06  0.00000E+00  9.000E+00
#rwgt            1         182   9.4325118252419505E-003        6024     2558657           0
<rwgt>
<wgt id='central'>  0.310384484E+07 </wgt>
<wgt id='sudakovwgt'>  0.934985629E-01 </wgt>
<wgt id='scales0.50.5'>  0.379232385E+07 </wgt>
<wgt id='scales0.51.0'>  0.379496939E+07 </wgt>
<wgt id='scales1.00.5'>  0.310167625E+07 </wgt>
<wgt id='scales1.02.0'>  0.308157612E+07 </wgt>
<wgt id='scales2.01.0'>  0.258778709E+07 </wgt>
<wgt id='scales2.02.0'>  0.256922486E+07 </wgt>
</rwgt>
<scales uborns=' 0.168060196E+03'> </scales>
</event>
<event>
      5  10001  2.36163E+00  2.45721E+02  7.29735E-03  1.08487E-01
       1    -1     0     0   512     0  0.000000000E+00  0.000000000E+00  2.067167875E+03  2.067167875E+03  0.000000000E+00  0.00000E+00  9.000E+00
       1    -1     0     0   514     0  0.000000000E+00  0.000000000E+00 -1.873091553E+03  1.873091553E+03  0.000000000E+00  0.00000E+00  9.000E+00
       1     1     1     2   514     0  1.232848133E+03 -1.507484810E+03  3.078876349E+02  1.971603349E+03  3.558112737E-05  0.00000E+00  9.000E+00
       1     1     1     2   512     0 -5.990373991E+02  8.777625578E+02  3.306986995E+01  1.063205780E+03  2.750404003E-05  0.00000E+00  9.000E+00
      22     1     1     2     0     0 -6.338107343E+02  6.297222520E+02 -1.468811832E+02  9.054502988E+02  8.946258087E-06  0.00000E+00  9.000E+00
#rwgt            1          91   4.1991695558968301E-004        6024     2560892           0
<rwgt>
<wgt id='central'>  0.236163289E+01 </wgt>
<wgt id='sudakovwgt'>  0.674865852E-01 </wgt>
<wgt id='scales0.50.5'>  0.311840738E+01 </wgt>
<wgt id='scales0.51.0'>  0.273446567E+01 </wgt>
<wgt id='scales1.00.5'>  0.269322249E+01 </wgt>
<wgt id='scales1.02.0'>  0.208796218E+01 </wgt>
<wgt id='scales2.01.0'>  0.206080444E+01 </wgt>
<wgt id='scales2.02.0'>  0.182199655E+01 </wgt>
</rwgt>
<scales uborns=' 0.195628554E+04'> </scales>
</event>
<event>
      5  10001  2.43929E+02  1.76711E+02  7.29735E-03  1.13641E-01
       2    -1     0     0   511     0  0.000000000E+00  0.000000000E+00  9.037364466E+02  9.037364466E+02  0.000000000E+00  0.00000E+00  9.000E+00
       2    -1     0     0   513     0  0.000000000E+00  0.000000000E+00 -8.153035526E+02  8.153035526E+02  0.000000000E+00  0.00000E+00  9.000E+00
       2     1     1     2   511     0 -7.123277804E+02  4.092870043E+02  2.666352354E+02  8.637251109E+02  1.009274029E-05  0.00000E+00  9.000E+00
      22     1     1     2     0     0  2.766606659E+02 -2.139220159E+02 -1.386935149E+02  3.762175488E+02  1.907348633E-06  0.00000E+00  9.000E+00
       2     1     1     2   513     0  4.356671145E+02 -1.953649884E+02 -3.950882639E+01  4.790973395E+02  1.168007728E-06  0.00000E+00  9.000E+00
#rwgt            1          97   9.2046105112795107E-004        6024     2561687           0
<rwgt>
<wgt id='central'>  0.243929105E+03 </wgt>
<wgt id='sudakovwgt'>  0.965326444E-03 </wgt>
<wgt id='scales0.50.5'>  0.301386947E+03 </wgt>
<wgt id='scales0.51.0'>  0.286782548E+03 </wgt>
<wgt id='scales1.00.5'>  0.256351082E+03 </wgt>
<wgt id='scales1.02.0'>  0.232630638E+03 </wgt>
<wgt id='scales2.01.0'>  0.210098760E+03 </wgt>
<wgt id='scales2.02.0'>  0.200367355E+03 </wgt>
</rwgt>
<scales uborns=' 0.828533675E+03'> </scales>
</event>
<event>
      5  10001  5.91074E+00  4.77078E+01  7.29735E-03  1.40248E-01
      21    -1     0     0   514   513  0.000000000E+00  0.000000000E+00  3.774224937E+03  3.774224937E+03  0.000000000E+00  0.00000E+00  9.000E+00
      21    -1     0     0   512   514  0.000000000E+00  0.000000000E+00 -7.731750570E+02  7.731750570E+02  0.000000000E+00  0.00000E+00  9.000E+00
       3     1     1     2   512     0  9.189279799E+01  1.620417155E+03  8.107273015E+02  1.814242211E+03  2.854658040E-05  0.00000E+00  9.000E+00
      -3     1     1     2     0   513 -5.683286212E+01 -1.550511093E+03  2.032523965E+03  2.557042880E+03  5.709316081E-05  0.00000E+00  9.000E+00
      22     1     1     2     0     0 -3.505993587E+01 -6.990606161E+01  1.577986131E+02  1.761149024E+02  3.303624740E-06  0.00000E+00  9.000E+00
#rwgt            1         203   3.2419479455003280E-006        6024     2567983           0
<rwgt>
<wgt id='central'>  0.591073714E+01 </wgt>
<wgt id='sudakovwgt'>  0.477058409E-01 </wgt>
<wgt id='scales0.50.5'>  0.877634192E+01 </wgt>
<wgt id='scales0.51.0'>  0.686449287E+01 </wgt>
<wgt id='scales1.00.5'>  0.755695667E+01 </wgt>
<wgt id='scales1.02.0'>  0.476394463E+01 </wgt>
<wgt id='scales2.01.0'>  0.514450363E+01 </wgt>
<wgt id='scales2.02.0'>  0.414637261E+01 </wgt>
</rwgt>
<scales uborns=' 0.162838358E+04'> </scales>
</event>
<event>
      5  10001  2.77606E+02  1.11471E+03  7.29735E-03  8.98732E-02
       2    -1     0     0   511     0  0.000000000E+00  0.000000000E+00  1.394441824E+03  1.394441824E+03  0.000000000E+00  0.00000E+00  9.000E+00
       2    -1     0     0   512     0  0.000000000E+00  0.000000000E+00 -4.797897969E+02  4.797897969E+02  0.000000000E+00  0.00000E+00  9.000E+00
       2     1     1     2   511     0  4.275092781E+02 -1.791021502E+02  1.877171363E+02  5.000794800E+02  1.175768662E-05  0.00000E+00  9.000E+00
      22     1     1     2     0     0 -4.000042187E+01  4.694619423E+02 -3.380891443E+01  4.723744190E+02  4.768371582E-06  0.00000E+00  9.000E+00
       2     1     1     2   512     0 -3.875088562E+02 -2.903597921E+02  7.607438055E+02  9.017777221E+02  1.868812365E-05  0.00000E+00  9.000E+00
#rwgt            1          97   8.6008009759141080E-004        6024     2568854           0
<rwgt>
<wgt id='central'>  0.277606347E+03 </wgt>
<wgt id='sudakovwgt'>  0.494210903E-03 </wgt>
<wgt id='scales0.50.5'>  0.344106482E+03 </wgt>
<wgt id='scales0.51.0'>  0.326520496E+03 </wgt>
<wgt id='scales1.00.5'>  0.292557512E+03 </wgt>
<wgt id='scales1.02.0'>  0.264062219E+03 </wgt>
<wgt id='scales2.01.0'>  0.239015412E+03 </wgt>
<wgt id='scales2.02.0'>  0.227354380E+03 </wgt>
</rwgt>
<scales uborns=' 0.810133268E+03'> </scales>
</event>
<event>
      5  10001  3.66336E+08  1.42238E+01  7.29735E-03  1.79585E-01
      21    -1     0     0   512   514  0.000000000E+00  0.000000000E+00  3.179529592E+02  3.179529592E+02  0.000000000E+00  0.00000E+00  9.000E+00
      -2    -1     0     0     0   513  0.000000000E+00  0.000000000E+00 -2.381749555E+02  2.381749555E+02  0.000000000E+00  0.00000E+00  9.000E+00
      -2     1     1     2     0   514 -8.090425295E+01  1.805114520E+01 -1.762728218E+02  1.947907844E+02  2.697398305E-06  0.00000E+00  9.000E+00
      21     1     1     2   512   513  6.759685889E+01 -1.302833338E+01  3.038064269E+02  3.115082949E+02  0.000000000E+00  0.00000E+00  9.000E+00
      22     1     1     2     0     0  1.330739405E+01 -5.022811821E+00 -4.775560137E+01  4.982883540E+01  6.743495762E-07  0.00000E+00  9.000E+00
#rwgt            1         197   1.0461213718936881E-003        6024     2569158           0
<rwgt>
<wgt id='central'>  0.366336261E+09 </wgt>
<wgt id='sudakovwgt'>  0.261399368E-01 </wgt>
<wgt id='scales0.50.5'>  0.471146122E+09 </wgt>
<wgt id='scales0.51.0'>  0.460621474E+09 </wgt>
<wgt id='scales1.00.5'>  0.374706338E+09 </wgt>
<wgt id='scales1.02.0'>  0.355757590E+09 </wgt>
<wgt id='scales2.01.0'>  0.298660284E+09 </wgt>
<wgt id='scales2.02.0'>  0.290036095E+09 </wgt>
</rwgt>
<scales uborns=' 0.758280555E+02'> </scales>
</event>
<event>
      5  10001  1.91630E+03  1.36637E+01  7.29735E-03  1.81288E-01
       2    -1     0     0   513     0  0.000000000E+00  0.000000000E+00  3.924712792E+03  3.924712792E+03  0.000000000E+00  0.00000E+00  9.000E+00
      21    -1     0     0   511   515  0.000000000E+00  0.000000000E+00 -1.062173547E+02  1.062173547E+02  0.000000000E+00  0.00000E+00  9.000E+00
       2     1     1     2   511     0 -1.940614117E+02 -5.440539086E+02  2.384357027E+03  2.453326909E+03  3.051757812E-05  0.00000E+00  9.000E+00
      21     1     1     2   513   515  1.859734973E+02  5.550667501E+02  1.125256522E+03  1.268419284E+03  2.157918644E-05  0.00000E+00  9.000E+00
      22     1     1     2     0     0  8.087914320E+00 -1.101284146E+01  3.088818878E+02  3.091839544E+02  3.814697266E-06  0.00000E+00  9.000E+00
#rwgt            1         182   3.3476438073914122E-002        6024     2570169           0
<rwgt>
<wgt id='central'>  0.191629837E+04 </wgt>
<wgt id='sudakovwgt'>  0.526044092E-01 </wgt>
<wgt id='scales0.50.5'>  0.252912057E+04 </wgt>
<wgt id='scales0.51.0'>  0.226942600E+04 </wgt>
<wgt id='scales1.00.5'>  0.213558572E+04 </wgt>
<wgt id='scales1.02.0'>  0.172814523E+04 </wgt>
<wgt id='scales2.01.0'>  0.164040942E+04 </wgt>
<wgt id='scales2.02.0'>  0.147934337E+04 </wgt>
</rwgt>
<scales uborns=' 0.581472181E+03'> </scales>
</event>
<event>
      5  10001  9.55431E+02  1.28193E+01  7.29735E-03  1.84062E-01
       2    -1     0     0   511     0  0.000000000E+00  0.000000000E+00  1.870070486E+03  1.870070486E+03  0.000000000E+00  0.00000E+00  9.000E+00
       2    -1     0     0   512     0  0.000000000E+00  0.000000000E+00 -1.822189836E+03  1.822189836E+03  0.000000000E+00  0.00000E+00  9.000E+00
       2     1     1     2   512     0  6.556557335E+02 -1.795383532E+01  1.735217102E+03  1.855043172E+03  3.051757812E-05  0.00000E+00  9.000E+00
       2     1     1     2   511     0 -6.530448804E+02  3.050447594E+01 -1.353320203E+03  1.502954993E+03  3.051757812E-05  0.00000E+00  9.000E+00
      22     1     1     2     0     0 -2.610853159E+00 -1.255064063E+01 -3.340162487E+02  3.342621569E+02  3.814697266E-06  0.00000E+00  9.000E+00
#rwgt            1          97   6.7316221247545214E-003        6024     2573694           0
<rwgt>
<wgt id='central'>  0.955431080E+03 </wgt>
<wgt id='sudakovwgt'>  0.165585827E+00 </wgt>
<wgt id='scales0.50.5'>  0.125116380E+04 </wgt>
<wgt id='scales0.51.0'>  0.112864878E+04 </wgt>
<wgt id='scales1.00.5'>  0.105914320E+04 </wgt>
<wgt id='scales1.02.0'>  0.867842676E+03 </wgt>
<wgt id='scales2.01.0'>  0.819612929E+03 </wgt>
<wgt id='scales2.02.0'>  0.744475612E+03 </wgt>
</rwgt>
<scales uborns=' 0.654798594E+03'> </scales>
</event>
<event>
      5  10001  1.31924E+05  3.48890E+01  7.29735E-03  1.48621E-01
      -2    -1     0     0     0   513  0.000000000E+00  0.000000000E+00  1.343177368E+02  1.343177368E+02  0.000000000E+00  0.00000E+00  9.000E+00
      21    -1     0     0   514   511  0.000000000E+00  0.000000000E+00 -9.266911236E+02  9.266911236E+02  0.000000000E+00  0.00000E+00  9.000E+00
      -2     1     1     2     0   511  2.120602558E+02 -1.043596298E+01 -7.414693177E+01  2.248915937E+02  3.303624740E-06  0.00000E+00  9.000E+00
      21     1     1     2   514   513 -2.827106604E+02 -1.632274292E+01 -7.045646786E+02  7.593438850E+02  7.629394531E-06  0.00000E+00  9.000E+00
      22     1     1     2     0     0  7.065040456E+01  2.675870590E+01 -1.366177641E+01  7.677338172E+01  1.800020799E-06  0.00000E+00  9.000E+00
#rwgt            1         192   5.2569425137457984E-004        6024     2630486           0
<rwgt>
<wgt id='central'>  0.131924174E+06 </wgt>
<wgt id='sudakovwgt'>  0.104505673E-02 </wgt>
<wgt id='scales0.50.5'>  0.170241860E+06 </wgt>
<wgt id='scales0.51.0'>  0.158901764E+06 </wgt>
<wgt id='scales1.00.5'>  0.141338815E+06 </wgt>
<wgt id='scales1.02.0'>  0.123387036E+06 </wgt>
<wgt id='scales2.01.0'>  0.111348173E+06 </wgt>
<wgt id='scales2.02.0'>  0.104142695E+06 </wgt>
</rwgt>
<scales uborns=' 0.284955503E+03'> </scales>
</event>
<event>
      5  10001  9.35370E+03  1.24909E+01  7.29735E-03  1.85216E-01
      21    -1     0     0   512   515  0.000000000E+00  0.000000000E+00  1.985638226E+02  1.985638226E+02  0.000000000E+00  0.00000E+00  9.000E+00
       1    -1     0     0   513     0  0.000000000E+00  0.000000000E+00 -1.135168192E+03  1.135168192E+03  0.000000000E+00  0.00000E+00  9.000E+00
      22     1     1     2     0     0 -2.424034460E+02  1.605962961E+02 -4.659004607E+02  5.491938094E+02  9.344061824E-06  0.00000E+00  9.000E+00
      21     1     1     2   513   515  3.640504511E+02 -2.548381833E+02 -2.340391902E+02  5.022445352E+02  2.697398305E-06  0.00000E+00  9.000E+00
       1     1     1     2   512     0 -1.216470051E+02  9.424188720E+01 -2.366647185E+02  2.822936700E+02  5.394796609E-06  0.00000E+00  9.000E+00
#rwgt            1         186   5.0038202643431567E-003        6024     2631095           0
<rwgt>
<wgt id='central'>  0.935370114E+04 </wgt>
<wgt id='sudakovwgt'>  0.329831117E-01 </wgt>
<wgt id='scales0.50.5'>  0.119516708E+05 </wgt>
<wgt id='scales0.51.0'>  0.111438988E+05 </wgt>
<wgt id='scales1.00.5'>  0.100317084E+05 </wgt>
<wgt id='scales1.02.0'>  0.873909798E+04 </wgt>
<wgt id='scales2.01.0'>  0.796692935E+04 </wgt>
<wgt id='scales2.02.0'>  0.744344764E+04 </wgt>
</rwgt>
<scales uborns=' 0.444528958E+03'> </scales>
</event>
<event>
      5  10001  1.61831E+00  2.03222E+02  7.29735E-03  1.11396E-01
       2    -1     0     0   511     0  0.000000000E+00  0.000000000E+00  3.853406899E+03  3.853406899E+03  0.000000000E+00  0.00000E+00  9.000E+00
       2    -1     0     0   512     0  0.000000000E+00  0.000000000E+00 -1.714494298E+03  1.714494298E+03  0.000000000E+00  0.00000E+00  9.000E+00
       2     1     1     2   511     0 -8.388004776E+01 -2.112438816E+03 -5.073197035E+02  2.174122097E+03  4.315837288E-05  0.00000E+00  9.000E+00
       2     1     1     2   512     0 -2.534645239E+01  1.066562482E+03  1.464927508E+03  1.812239105E+03  0.000000000E+00  0.00000E+00  9.000E+00
      22     1     1     2     0     0  1.092265002E+02  1.045876334E+03  1.181304797E+03  1.581539995E+03  2.157918644E-05  0.00000E+00  9.000E+00
#rwgt            1          97   7.5571029284651758E-002        6024     2631440           0
<rwgt>
<wgt id='central'>  0.161831442E+01 </wgt>
<wgt id='sudakovwgt'>  0.211641234E-02 </wgt>
<wgt id='scales0.50.5'>  0.216509173E+01 </wgt>
<wgt id='scales0.51.0'>  0.187143250E+01 </wgt>
<wgt id='scales1.00.5'>  0.187225005E+01 </wgt>
<wgt id='scales1.02.0'>  0.141200362E+01 </wgt>
<wgt id='scales2.01.0'>  0.141370628E+01 </wgt>
<wgt id='scales2.02.0'>  0.123348332E+01 </wgt>
</rwgt>
<scales uborns=' 0.211777042E+04'> </scales>
</event>
<event>
      5  10001  9.91367E+02  4.59477E+01  7.29735E-03  1.41202E-01
       2    -1     0     0   514     0  0.000000000E+00  0.000000000E+00  1.651186258E+03  1.651186258E+03  0.000000000E+00  0.00000E+00  9.000E+00
      21    -1     0     0   513   511  0.000000000E+00  0.000000000E+00 -4.244368136E+02  4.244368136E+02  0.000000000E+00  0.00000E+00  9.000E+00
       2     1     1     2   513     0 -5.725044843E+02  3.261904726E+02  3.168846374E+02  7.311480578E+02  2.089395742E-05  0.00000E+00  9.000E+00
      21     1     1     2   514   511  5.787866997E+02 -2.806742302E+02  2.613215373E+02  6.943061379E+02  1.705984480E-05  0.00000E+00  9.000E+00
      22     1     1     2     0     0 -6.282215383E+00 -4.551624241E+01  6.485432700E+02  6.501688763E+02  1.078959322E-05  0.00000E+00  9.000E+00
#rwgt            1         182   4.5398212132452360E-003        6024     2643713           0
<rwgt>
<wgt id='central'>  0.991367099E+03 </wgt>
<wgt id='sudakovwgt'>  0.251319787E-01 </wgt>
<wgt id='scales0.50.5'>  0.126974335E+04 </wgt>
<wgt id='scales0.51.0'>  0.117125444E+04 </wgt>
<wgt id='scales1.00.5'>  0.107472946E+04 </wgt>
<wgt id='scales1.02.0'>  0.918245513E+03 </wgt>
<wgt id='scales2.01.0'>  0.850345859E+03 </wgt>
<wgt id='scales2.02.0'>  0.787625844E+03 </wgt>
</rwgt>
<scales uborns=' 0.650674892E+03'> </scales>
</event>
<event>
      5  10001  8.60029E+00  6.46043E+00  7.29735E-03  2.20597E-01
       2    -1     0     0   511     0  0.000000000E+00  0.000000000E+00  2.677452675E+03  2.677452675E+03  0.000000000E+00  0.00000E+00  9.000E+00
      21    -1     0     0   512   515  0.000000000E+00  0.000000000E+00 -9.243044263E+02  9.243044263E+02  0.000000000E+00  0.00000E+00  9.000E+00
       2     1     1     2   512     0  1.507904679E+03  1.460429435E+02  1.240507296E+03  1.958050922E+03  2.642899792E-05  0.00000E+00  9.000E+00
      21     1     1     2   511   515 -1.507427410E+03 -1.524857186E+02  4.497205148E+02  1.580454945E+03  1.206313194E-05  0.00000E+00  9.000E+00
      22     1     1     2     0     0 -4.772682638E-01  6.442775135E+00  6.292043867E+01  6.325123508E+01  6.743495762E-07  0.00000E+00  9.000E+00
#rwgt            1         182   6.6026815776534485E-003        6024     2645179           0
<rwgt>
<wgt id='central'>  0.860029491E+01 </wgt>
<wgt id='sudakovwgt'>  0.253791808E+00 </wgt>
<wgt id='scales0.50.5'>  0.115494222E+02 </wgt>
<wgt id='scales0.51.0'>  0.100001941E+02 </wgt>
<wgt id='scales1.00.5'>  0.993264531E+01 </wgt>
<wgt id='scales1.02.0'>  0.751822661E+01 </wgt>
<wgt id='scales2.01.0'>  0.747757805E+01 </wgt>
<wgt id='scales2.02.0'>  0.653677099E+01 </wgt>
</rwgt>
<scales uborns=' 0.151503688E+04'> </scales>
</event>
<event>
      5  10001  4.69061E+04  1.58177E+02  7.29735E-03  1.15487E-01
      21    -1     0     0   512   514  0.000000000E+00  0.000000000E+00  2.581686447E+02  2.581686447E+02  0.000000000E+00  0.00000E+00  9.000E+00
      -2    -1     0     0     0   513  0.000000000E+00  0.000000000E+00 -9.466973415E+02  9.466973415E+02  0.000000000E+00  0.00000E+00  9.000E+00
      22     1     1     2     0     0  5.034848476E+01 -3.990982621E+01 -2.207363583E+02  2.298962897E+02  2.697398305E-06  0.00000E+00  9.000E+00
      21     1     1     2   512   513 -3.230460684E+02  9.225462675E+01  9.351669396E+01  3.487334950E+02  7.008046368E-06  0.00000E+00  9.000E+00
      -2     1     1     2     0   514  2.726975836E+02 -5.234480054E+01 -5.613090325E+02  6.262362016E+02  1.321449896E-05  0.00000E+00  9.000E+00
#rwgt            1         197   8.7522861634801606E-004        6024     2652454           0
<rwgt>
<wgt id='central'>  0.469060590E+05 </wgt>
<wgt id='sudakovwgt'>  0.170057323E-02 </wgt>
<wgt id='scales0.50.5'>  0.608953933E+05 </wgt>
<wgt id='scales0.51.0'>  0.562484632E+05 </wgt>
<wgt id='scales1.00.5'>  0.507812168E+05 </wgt>
<wgt id='scales1.02.0'>  0.434415116E+05 </wgt>
<wgt id='scales2.01.0'>  0.397357604E+05 </wgt>
<wgt id='scales2.02.0'>  0.368007892E+05 </wgt>
</rwgt>
<scales uborns=' 0.338906818E+03'> </scales>
</event>
<event>
      5  10001  1.21451E+01  2.84729E+01  7.29735E-03  1.54632E-01
      -2    -1     0     0     0   511  0.000000000E+00  0.000000000E+00  2.282511415E+03  2.282511415E+03  0.000000000E+00  0.00000E+00  9.000E+00
       1    -1     0     0   511     0  0.000000000E+00  0.000000000E+00 -1.641921721E+03  1.641921721E+03  0.000000000E+00  0.00000E+00  9.000E+00
       1     1     1     2   512     0  1.384115699E+03 -3.135812223E+02 -1.014020762E+03  1.744232655E+03  2.854658040E-05  0.00000E+00  9.000E+00
      22     1     1     2     0     0 -8.713269047E+02  2.092977839E+02  1.066130274E+03  1.392713143E+03  0.000000000E+00  0.00000E+00  9.000E+00
      -2     1     1     2     0   512 -5.127887943E+02  1.042834384E+02  5.884801816E+02  7.874873378E+02  0.000000000E+00  0.00000E+00  9.000E+00
#rwgt            1         165   8.3071149633066169E-005        6024     2652906           0
<rwgt>
<wgt id='central'>  0.121450670E+02 </wgt>
<wgt id='sudakovwgt'>  0.358495900E-02 </wgt>
<wgt id='scales0.50.5'>  0.163841229E+02 </wgt>
<wgt id='scales0.51.0'>  0.141378147E+02 </wgt>
<wgt id='scales1.00.5'>  0.140747927E+02 </wgt>
<wgt id='scales1.02.0'>  0.105617613E+02 </wgt>
<wgt id='scales2.01.0'>  0.105495150E+02 </wgt>
<wgt id='scales2.02.0'>  0.917419036E+01 </wgt>
</rwgt>
<scales uborns=' 0.141932853E+04'> </scales>
</event>
<event>
      5  10001  9.76245E+02  5.10173E+01  7.29735E-03  1.38578E-01
      21    -1     0     0   513   511  0.000000000E+00  0.000000000E+00  3.306332862E+02  3.306332862E+02  0.000000000E+00  0.00000E+00  9.000E+00
       2    -1     0     0   512     0  0.000000000E+00  0.000000000E+00 -1.891726108E+03  1.891726108E+03  0.000000000E+00  0.00000E+00  9.000E+00
      22     1     1     2     0     0  3.575691036E+02  2.982028212E+02 -1.093716533E+02  4.782705772E+02  1.018245530E-05  0.00000E+00  9.000E+00
      21     1     1     2   512   511 -4.657709940E+02 -4.544097216E+02 -1.405053350E+03  1.548420399E+03  0.000000000E+00  0.00000E+00  9.000E+00
       2     1     1     2   513     0  1.082018903E+02  1.562069004E+02 -4.666781851E+01  1.956684187E+02  6.069146186E-06  0.00000E+00  9.000E+00
#rwgt            1         187   1.2864402433462770E-003        6024     2714247           0
<rwgt>
<wgt id='central'>  0.976245226E+03 </wgt>
<wgt id='sudakovwgt'>  0.700005746E-03 </wgt>
<wgt id='scales0.50.5'>  0.127399435E+04 </wgt>
<wgt id='scales0.51.0'>  0.115332511E+04 </wgt>
<wgt id='scales1.00.5'>  0.107838683E+04 </wgt>
<wgt id='scales1.02.0'>  0.888663791E+03 </wgt>
<wgt id='scales2.01.0'>  0.837413759E+03 </wgt>
<wgt id='scales2.02.0'>  0.762287424E+03 </wgt>
</rwgt>
<scales uborns=' 0.652388300E+03'> </scales>
</event>
<event>
      5  10001  1.55560E+04  4.56302E+01  7.29735E-03  1.41380E-01
      21    -1     0     0   514   515  0.000000000E+00  0.000000000E+00  5.473384008E+01  5.473384008E+01  0.000000000E+00  0.00000E+00  9.000E+00
       2    -1     0     0   511     0  0.000000000E+00  0.000000000E+00 -3.190547645E+03  3.190547645E+03  0.000000000E+00  0.00000E+00  9.000E+00
       2     1     1     2   514     0 -1.092720634E+02 -3.215954484E+02 -1.747986646E+03  1.780680019E+03  3.737624730E-05  0.00000E+00  9.000E+00
      21     1     1     2   511   515  1.050439238E+02  3.877030908E+02 -1.198190889E+03  1.263728341E+03  2.157918644E-05  0.00000E+00  9.000E+00
      22     1     1     2     0     0  4.228139633E+00 -6.610764239E+01 -1.896362700E+02  2.008731252E+02  0.000000000E+00  0.00000E+00  9.000E+00
#rwgt            1         187   4.6527884591527430E-002        6024     2715107           0
<rwgt>
<wgt id='central'>  0.155560320E+05 </wgt>
<wgt id='sudakovwgt'>  0.605443552E-03 </wgt>
<wgt id='scales0.50.5'>  0.200411010E+05 </wgt>
<wgt id='scales0.51.0'>  0.185704547E+05 </wgt>
<wgt id='scales1.00.5'>  0.167879232E+05 </wgt>
<wgt id='scales1.02.0'>  0.144338648E+05 </wgt>
<wgt id='scales2.01.0'>  0.132275160E+05 </wgt>
<wgt id='scales2.02.0'>  0.122733465E+05 </wgt>
</rwgt>
<scales uborns=' 0.408002635E+03'> </scales>
</event>
<event>
      5  10001  7.84339E+01  1.09849E+03  7.29735E-03  9.00224E-02
      21    -1     0     0   512   513  0.000000000E+00  0.000000000E+00  2.460228591E+02  2.460228591E+02  0.000000000E+00  0.00000E+00  9.000E+00
       2    -1     0     0   514     0  0.000000000E+00  0.000000000E+00 -4.203754328E+03  4.203754328E+03  0.000000000E+00  0.00000E+00  9.000E+00
       2     1     1     2   512     0 -4.338000568E+02 -7.116203266E+02 -9.475190007E+02  1.261894701E+03  2.854658040E-05  0.00000E+00  9.000E+00
      21     1     1     2   514   513  1.163450545E+02  5.271456249E+02 -9.283905760E+02  1.073930977E+03  1.868812365E-05  0.00000E+00  9.000E+00
      22     1     1     2     0     0  3.174550024E+02  1.844747017E+02 -2.081821892E+03  2.113951509E+03  3.051757812E-05  0.00000E+00  9.000E+00
#rwgt            1         187   1.6524226234177129E-002        6024     2715643           0
<rwgt>
<wgt id='central'>  0.784338626E+02 </wgt>
<wgt id='sudakovwgt'>  0.706293301E-01 </wgt>
<wgt id='scales0.50.5'>  0.106403156E+03 </wgt>
<wgt id='scales0.51.0'>  0.918616750E+02 </wgt>
<wgt id='scales1.00.5'>  0.908497964E+02 </wgt>
<wgt id='scales1.02.0'>  0.683296081E+02 </wgt>
<wgt id='scales2.01.0'>  0.677755244E+02 </wgt>
<wgt id='scales2.02.0'>  0.590443038E+02 </wgt>
</rwgt>
<scales uborns=' 0.101102552E+04'> </scales>
</event>
<event>
      5  10001  3.95982E+04  2.42457E+02  7.29735E-03  1.08687E-01
       3    -1     0     0   515     0  0.000000000E+00  0.000000000E+00  2.371791903E+02  2.371791903E+02  0.000000000E+00  0.00000E+00  9.000E+00
      21    -1     0     0   511   512  0.000000000E+00  0.000000000E+00 -5.845938755E+02  5.845938755E+02  0.000000000E+00  0.00000E+00  9.000E+00
      22     1     1     2     0     0  2.053745351E+01  2.143917625E+00  4.189118548E+00  2.106969610E+01  6.743495762E-07  0.00000E+00  9.000E+00
      21     1     1     2   515   512 -2.401436283E+02 -2.491213800E+02 -3.154682371E+02  4.682420665E+02  1.078959322E-05  0.00000E+00  9.000E+00
       3     1     1     2   511     0  2.196061748E+02  2.469774624E+02 -3.613556664E+01  3.324613032E+02  5.800974398E-06  0.00000E+00  9.000E+00
#rwgt            1         183   4.7930778990816904E-004        6024     2716061           0
<rwgt>
<wgt id='central'>  0.395981928E+05 </wgt>
<wgt id='sudakovwgt'>  0.207928704E-01 </wgt>
<wgt id='scales0.50.5'>  0.500040739E+05 </wgt>
<wgt id='scales0.51.0'>  0.474515370E+05 </wgt>
<wgt id='scales1.00.5'>  0.417282863E+05 </wgt>
<wgt id='scales1.02.0'>  0.375604906E+05 </wgt>
<wgt id='scales2.01.0'>  0.335646529E+05 </wgt>
<wgt id='scales2.02.0'>  0.318374277E+05 </wgt>
</rwgt>
<scales uborns=' 0.348682209E+03'> </scales>
</event>
<event>
      5  10001  2.70443E+05  1.63793E+00  7.29735E-03  4.09076E-01
       2    -1     0     0   512     0  0.000000000E+00  0.000000000E+00  3.394315695E+03  3.394315695E+03  0.000000000E+00  0.00000E+00  9.000E+00
      21    -1     0     0   514   512  0.000000000E+00  0.000000000E+00 -4.262652625E+02  4.262652625E+02  0.000000000E+00  0.00000E+00  9.000E+00
       2     1     1     2   513     0 -2.462512069E+02 -5.950812879E+01  3.233568773E+03  3.243477745E+03  6.103515625E-05  0.00000E+00  9.000E+00
      21     1     1     2   514   513  2.447506713E+02  6.016478364E+01 -3.836111002E+02  4.589990942E+02  5.394796609E-06  0.00000E+00  9.000E+00
      22     1     1     2     0     0  1.500535553E+00 -6.566548447E-01  1.180927593E+02  1.181041176E+02  2.697398305E-06  0.00000E+00  9.000E+00
#rwgt            1         182   8.1834164721062055E-003        6024     2716264           0
<rwgt>
<wgt id='central'>  0.270442749E+06 </wgt>
<wgt id='sudakovwgt'>  0.828172193E-01 </wgt>
<wgt id='scales0.50.5'>  0.383993412E+06 </wgt>
<wgt id='scales0.51.0'>  0.326792183E+06 </wgt>
<wgt id='scales1.00.5'>  0.317780950E+06 </wgt>
<wgt id='scales1.02.0'>  0.232875520E+06 </wgt>
<wgt id='scales2.01.0'>  0.227660583E+06 </wgt>
<wgt id='scales2.02.0'>  0.196036047E+06 </wgt>
</rwgt>
<scales uborns=' 0.252687739E+03'> </scales>
</event>
<event>
      5  10001  4.89210E+01  2.41722E+01  7.29735E-03  1.59854E-01
      -1    -1     0     0     0   511  0.000000000E+00  0.000000000E+00  2.588022929E+03  2.588022929E+03  0.000000000E+00  0.00000E+00  9.000E+00
       1    -1     0     0   511     0  0.000000000E+00  0.000000000E+00 -2.130715016E+03  2.130715016E+03  0.000000000E+00  0.00000E+00  9.000E+00
       1     1     1     2   512     0  8.589803655E+02  6.856753411E+02 -1.854793391E+03  2.155981555E+03  3.051757812E-05  0.00000E+00  9.000E+00
      -1     1     1     2     0   512 -8.261463021E+02 -6.805892845E+02  2.213753599E+03  2.458947840E+03  3.051757812E-05  0.00000E+00  9.000E+00
      22     1     1     2     0     0 -3.283406342E+01 -5.086056589E+00  9.834770590E+01  1.038085495E+02  1.348699152E-06  0.00000E+00  9.000E+00
#rwgt            1          66   1.3960379360898937E-004        6024     2729841           0
<rwgt>
<wgt id='central'>  0.489210170E+02 </wgt>
<wgt id='sudakovwgt'>  0.780958870E-01 </wgt>
<wgt id='scales0.50.5'>  0.641630499E+02 </wgt>
<wgt id='scales0.51.0'>  0.572069182E+02 </wgt>
<wgt id='scales1.00.5'>  0.548695973E+02 </wgt>
<wgt id='scales1.02.0'>  0.439309097E+02 </wgt>
<wgt id='scales2.01.0'>  0.423293301E+02 </wgt>
<wgt id='scales2.02.0'>  0.380116101E+02 </wgt>
</rwgt>
<scales uborns=' 0.109978315E+04'> </scales>
</event>
<event>
      5  10001  7.37313E+02  1.73076E+01  7.29735E-03  1.71722E-01
      21    -1     0     0   513   511  0.000000000E+00  0.000000000E+00  7.656676575E+02  7.656676575E+02  0.000000000E+00  0.00000E+00  9.000E+00
       2    -1     0     0   512     0  0.000000000E+00  0.000000000E+00 -6.345346360E+02  6.345346360E+02  0.000000000E+00  0.00000E+00  9.000E+00
       2     1     1     2   513     0  1.363170763E+02 -5.964232294E+02 -5.531917858E+01  6.142989707E+02  2.169478067E-05  0.00000E+00  9.000E+00
      21     1     1     2   512   511 -1.361119139E+02  6.699742906E+02  1.972885679E+02  7.115579964E+02  1.206313194E-05  0.00000E+00  9.000E+00
      22     1     1     2     0     0 -2.051623710E-01 -7.355106120E+01 -1.083636779E+01  7.434532643E+01  1.792108581E-06  0.00000E+00  9.000E+00
#rwgt            1         187   3.2573814426381650E-003        6024     2752054           0
<rwgt>
<wgt id='central'>  0.737313284E+03 </wgt>
<wgt id='sudakovwgt'>  0.767894536E-03 </wgt>
<wgt id='scales0.50.5'>  0.950164660E+03 </wgt>
<wgt id='scales0.51.0'>  0.870184316E+03 </wgt>
<wgt id='scales1.00.5'>  0.805080881E+03 </wgt>
<wgt id='scales1.02.0'>  0.678679727E+03 </wgt>
<wgt id='scales2.01.0'>  0.632993173E+03 </wgt>
<wgt id='scales2.02.0'>  0.582655716E+03 </wgt>
</rwgt>
<scales uborns=' 0.684528090E+03'> </scales>
</event>
<event>
      5  10001  5.56550E+07  1.23196E+00  7.29735E-03  5.24576E-01
      21    -1     0     0   515   511  0.000000000E+00  0.000000000E+00  7.568570658E+00  7.568570658E+00  0.000000000E+00  0.00000E+00  9.000E+00
       1    -1     0     0   511     0  0.000000000E+00  0.000000000E+00 -2.857478104E+03  2.857478104E+03  0.000000000E+00  0.00000E+00  9.000E+00
       1     1     1     2   514     0  8.707490359E+01  5.563573137E+01 -2.257102589E+03  2.259466634E+03  5.285799584E-05  0.00000E+00  9.000E+00
      21     1     1     2   515   514 -8.750404998E+01 -5.679052988E+01 -4.197402024E+02  4.325089138E+02  1.321449896E-05  0.00000E+00  9.000E+00
      22     1     1     2     0     0  4.291463841E-01  1.154798509E+00 -1.730667416E+02  1.730711264E+02  1.907348633E-06  0.00000E+00  9.000E+00
#rwgt            1         186   2.0742043561586841E-002        6024     2753046           0
<rwgt>
<wgt id='central'>  0.556550209E+08 </wgt>
<wgt id='sudakovwgt'>  0.266132735E-01 </wgt>
<wgt id='scales0.50.5'>  0.695532208E+08 </wgt>
<wgt id='scales0.51.0'>  0.691466638E+08 </wgt>
<wgt id='scales1.00.5'>  0.559822310E+08 </wgt>
<wgt id='scales1.02.0'>  0.546532102E+08 </wgt>
<wgt id='scales2.01.0'>  0.458064310E+08 </wgt>
<wgt id='scales2.02.0'>  0.449819155E+08 </wgt>
</rwgt>
<scales uborns=' 0.103823118E+03'> </scales>
</event>
<event>
      5  10001  3.42121E+01  1.71693E+02  7.29735E-03  1.14115E-01
       1    -1     0     0   514     0  0.000000000E+00  0.000000000E+00  2.660542164E+03  2.660542164E+03  0.000000000E+00  0.00000E+00  9.000E+00
      21    -1     0     0   512   513  0.000000000E+00  0.000000000E+00 -6.872315938E+02  6.872315938E+02  0.000000000E+00  0.00000E+00  9.000E+00
       1     1     1     2   512     0 -8.109236376E+02  2.006565572E+02  1.514307106E+03  1.729446793E+03  3.051757812E-05  0.00000E+00  9.000E+00
      21     1     1     2   514   513  1.140051604E+03 -2.045429915E+02  1.519294395E+02  1.168177234E+03  2.397500055E-05  0.00000E+00  9.000E+00
      22     1     1     2     0     0 -3.291279669E+02  3.886434302E+00  3.070740251E+02  4.501497304E+02  8.529922400E-06  0.00000E+00  9.000E+00
#rwgt            1         181   2.4853159833299627E-003        6024     2753953           0
<rwgt>
<wgt id='central'>  0.342120542E+02 </wgt>
<wgt id='sudakovwgt'>  0.408289931E-03 </wgt>
<wgt id='scales0.50.5'>  0.466207870E+02 </wgt>
<wgt id='scales0.51.0'>  0.399598324E+02 </wgt>
<wgt id='scales1.00.5'>  0.399149579E+02 </wgt>
<wgt id='scales1.02.0'>  0.296220500E+02 </wgt>
<wgt id='scales2.01.0'>  0.296319537E+02 </wgt>
<wgt id='scales2.02.0'>  0.256563968E+02 </wgt>
</rwgt>
<scales uborns=' 0.117295513E+04'> </scales>
</event>
<event>
      4  10001  3.09226E+06  8.94427E-01  7.29735E-03  7.51971E-01
      21    -1     0     0   512   515  0.000000000E+00  0.000000000E+00  1.819430130E+01  1.819430130E+01  0.000000000E+00  0.00000E+00  9.000E+00
       1    -1     0     0   515     0  0.000000000E+00  0.000000000E+00 -1.556356494E+03  1.556356494E+03  0.000000000E+00  0.00000E+00  9.000E+00
       1     1     1     2   511     0 -1.419606393E+02  9.014824031E+01 -7.976507048E+02  8.151847491E+02  1.078959322E-05  0.00000E+00  9.000E+00
      21     1     1     2   512   511  1.419606393E+02 -9.014824031E+01 -7.405114877E+02  7.593660460E+02  0.000000000E+00  0.00000E+00  9.000E+00
#rwgt            1         186   4.7946758924929953E-003        6024     2754086           0
<rwgt>
<wgt id='central'>  0.309225700E+07 </wgt>
<wgt id='sudakovwgt'>  0.165105198E+01 </wgt>
<wgt id='scales0.50.5'>  0.377147766E+07 </wgt>
<wgt id='scales0.51.0'>  0.378073835E+07 </wgt>
<wgt id='scales1.00.5'>  0.308468570E+07 </wgt>
<wgt id='scales1.02.0'>  0.307051784E+07 </wgt>
<wgt id='scales2.01.0'>  0.257817262E+07 </wgt>
<wgt id='scales2.02.0'>  0.256004509E+07 </wgt>
</rwgt>
<scales uborns=' 0.168165182E+03'> </scales>
</event>
<event>
      5  10001  1.68800E+02  2.39774E+00  7.29735E-03  3.29907E-01
       1    -1     0     0   512     0  0.000000000E+00  0.000000000E+00  1.716017278E+03  1.716017278E+03  0.000000000E+00  0.00000E+00  9.000E+00
      -4    -1     0     0     0   512  0.000000000E+00  0.000000000E+00 -8.978326622E+02  8.978326622E+02  0.000000000E+00  0.00000E+00  9.000E+00
       1     1     1     2   513     0  1.048427005E+02  8.771966020E+02  1.327131554E+03  1.594284802E+03  3.051757812E-05  0.00000E+00  9.000E+00
      -4     1     1     2     0   513 -8.247694964E+01 -6.817409606E+02 -3.974415547E+02  7.934311400E+02  1.206313194E-05  0.00000E+00  9.000E+00
      22     1     1     2     0     0 -2.236575087E+01 -1.954556414E+02 -1.115053830E+02  2.261339979E+02  3.303624740E-06  0.00000E+00  9.000E+00
#rwgt            1         143   5.0437078859569040E-005        6024     2755151           0
<rwgt>
<wgt id='central'>  0.168800406E+03 </wgt>
<wgt id='sudakovwgt'>  0.537058674E+00 </wgt>
<wgt id='scales0.50.5'>  0.209854861E+03 </wgt>
<wgt id='scales0.51.0'>  0.198206604E+03 </wgt>
<wgt id='scales1.00.5'>  0.178720082E+03 </wgt>
<wgt id='scales1.02.0'>  0.159258333E+03 </wgt>
<wgt id='scales2.01.0'>  0.145543776E+03 </wgt>
<wgt id='scales2.02.0'>  0.137316701E+03 </wgt>
</rwgt>
<scales uborns=' 0.883442692E+03'> </scales>
</event>
<event>
      5  10001  2.07903E+06  2.10657E+00  7.29735E-03  3.52868E-01
      21    -1     0     0   511   514  0.000000000E+00  0.000000000E+00  2.473460127E+02  2.473460127E+02  0.000000000E+00  0.00000E+00  9.000E+00
       2    -1     0     0   513     0  0.000000000E+00  0.000000000E+00 -9.103387944E+02  9.103387944E+02  0.000000000E+00  0.00000E+00  9.000E+00
       2     1     1     2   511     0  4.979945482E+01  1.737475830E+02 -8.351651533E+02  8.544992929E+02  1.868812365E-05  0.00000E+00  9.000E+00
      21     1     1     2   513   514 -4.931505840E+01 -1.716974643E+02  2.040730144E+02  2.712153931E+02  5.394796609E-06  0.00000E+00  9.000E+00
      22     1     1     2     0     0 -4.843964178E-01 -2.050118706E+00 -3.190064285E+01  3.197012106E+01  3.371747881E-07  0.00000E+00  9.000E+00
#rwgt            1         187   1.1160749610210624E-002        6024     2771421           0
<rwgt>
<wgt id='central'>  0.207903170E+07 </wgt>
<wgt id='sudakovwgt'>  0.526917700E-01 </wgt>
<wgt id='scales0.50.5'>  0.269042202E+07 </wgt>
<wgt id='scales0.51.0'>  0.253679932E+07 </wgt>
<wgt id='scales1.00.5'>  0.220493125E+07 </wgt>
<wgt id='scales1.02.0'>  0.196121198E+07 </wgt>
<wgt id='scales2.01.0'>  0.173623705E+07 </wgt>
<wgt id='scales2.02.0'>  0.163784500E+07 </wgt>
</rwgt>
<scales uborns=' 0.179690922E+03'> </scales>
</event>
<event>
      4  10001  5.69841E+05  8.94427E-01  7.29735E-03  7.51990E-01
      -3    -1     0     0     0   512  0.000000000E+00  0.000000000E+00  2.042590040E+02  2.042590040E+02  0.000000000E+00  0.00000E+00  9.000E+00
      21    -1     0     0   511   514  0.000000000E+00  0.000000000E+00 -7.263842789E+02  7.263842789E+02  0.000000000E+00  0.00000E+00  9.000E+00
      -3     1     1     2     0   514 -1.823425454E+02 -1.285022024E+02  1.182851072E+02  2.524935374E+02  0.000000000E+00  0.00000E+00  9.000E+00
      21     1     1     2   511   512  1.823425454E+02  1.285022024E+02 -6.404103821E+02  6.781497455E+02  7.629394531E-06  0.00000E+00  9.000E+00
#rwgt            1         193   4.4027512299416120E-004        6024     2774212           0
<rwgt>
<wgt id='central'>  0.569840845E+06 </wgt>
<wgt id='sudakovwgt'>  0.194228061E+01 </wgt>
<wgt id='scales0.50.5'>  0.733353692E+06 </wgt>
<wgt id='scales0.51.0'>  0.690948419E+06 </wgt>
<wgt id='scales1.00.5'>  0.604813600E+06 </wgt>
<wgt id='scales1.02.0'>  0.536772304E+06 </wgt>
<wgt id='scales2.01.0'>  0.478339682E+06 </wgt>
<wgt id='scales2.02.0'>  0.450580939E+06 </wgt>
</rwgt>
<scales uborns=' 0.223073127E+03'> </scales>
</event>
<event>
      5  10001  8.46369E+02  8.06394E+00  7.29735E-03  2.07219E-01
       1    -1     0     0   514     0  0.000000000E+00  0.000000000E+00  6.060780731E+02  6.060780731E+02  0.000000000E+00  0.00000E+00  9.000E+00
       1    -1     0     0   513     0  0.000000000E+00  0.000000000E+00 -1.601308033E+03  1.601308033E+03  0.000000000E+00  0.00000E+00  9.000E+00
       1     1     1     2   513     0  6.651107738E+02  6.726861856E+01  3.130353141E+02  7.381656429E+02  1.572839976E-05  0.00000E+00  9.000E+00
       1     1     1     2   514     0 -4.690745778E+02 -5.201046270E+01 -9.161274936E+02  1.030546279E+03  1.525878906E-05  0.00000E+00  9.000E+00
      22     1     1     2     0     0 -1.960361961E+02 -1.525815587E+01 -3.921377805E+02  4.386741848E+02  5.394796609E-06  0.00000E+00  9.000E+00
#rwgt            1          91   3.2746545321182488E-004        6024     2774705           0
<rwgt>
<wgt id='central'>  0.846368824E+03 </wgt>
<wgt id='sudakovwgt'>  0.746800379E-01 </wgt>
<wgt id='scales0.50.5'>  0.108769431E+04 </wgt>
<wgt id='scales0.51.0'>  0.999382281E+03 </wgt>
<wgt id='scales1.00.5'>  0.921159762E+03 </wgt>
<wgt id='scales1.02.0'>  0.781542698E+03 </wgt>
<wgt id='scales2.01.0'>  0.726319133E+03 </wgt>
<wgt id='scales2.02.0'>  0.670687861E+03 </wgt>
</rwgt>
<scales uborns=' 0.668530264E+03'> </scales>
</event>
<event>
      5  10001  5.33021E+01  3.55799E+01  7.29735E-03  1.48066E-01
      21    -1     0     0   512   513  0.000000000E+00  0.000000000E+00  1.043057976E+03  1.043057976E+03  0.000000000E+00  0.00000E+00  9.000E+00
       2    -1     0     0   513     0  0.000000000E+00  0.000000000E+00 -1.129706174E+03  1.129706174E+03  0.000000000E+00  0.00000E+00  9.000E+00
       2     1     1     2   511     0 -7.499977827E+02  7.672364119E+02 -1.375361332E+02  1.081695231E+03  1.388570764E-05  0.00000E+00  9.000E+00
      21     1     1     2   512   511  7.497690037E+02 -7.620616134E+02  2.992951887E+01  1.069479891E+03  2.207658201E-05  0.00000E+00  9.000E+00
      22     1     1     2     0     0  2.287790536E-01 -5.174798495E+00  2.095841671E+01  2.158902755E+01  4.768371582E-07  0.00000E+00  9.000E+00
#rwgt            1         187   3.6248598373158779E-003        6024     2778771           0
<rwgt>
<wgt id='central'>  0.533020555E+02 </wgt>
<wgt id='sudakovwgt'>  0.322664294E-02 </wgt>
<wgt id='scales0.50.5'>  0.698859026E+02 </wgt>
<wgt id='scales0.51.0'>  0.623476587E+02 </wgt>
<wgt id='scales1.00.5'>  0.597466760E+02 </wgt>
<wgt id='scales1.02.0'>  0.479058234E+02 </wgt>
<wgt id='scales2.01.0'>  0.461090183E+02 </wgt>
<wgt id='scales2.02.0'>  0.414409655E+02 </wgt>
</rwgt>
<scales uborns=' 0.108302085E+04'> </scales>
</event>
<event>
      5  10001  5.66470E+02  4.60247E+00  7.29735E-03  2.49893E-01
      -5    -1     0     0     0   513  0.000000000E+00  0.000000000E+00  1.335548489E+02  1.335548489E+02  0.000000000E+00  0.00000E+00  9.000E+00
       2    -1     0     0   513     0  0.000000000E+00  0.000000000E+00 -3.879837491E+03  3.879837491E+03  0.000000000E+00  0.00000E+00  9.000E+00
       2     1     1     2   512     0 -6.614601794E+02  9.210632050E+01 -1.559719267E+03  1.696684218E+03  3.051757812E-05  0.00000E+00  9.000E+00
      -5     1     1     2     0   512  7.099097093E+02 -9.421188948E+01 -2.073467865E+03  2.193653724E+03  3.051757812E-05  0.00000E+00  9.000E+00
      22     1     1     2     0     0 -4.844952986E+01  2.105568973E+00 -1.130955097E+02  1.230543972E+02  0.000000000E+00  0.00000E+00  9.000E+00
#rwgt            1         178   1.7558533725095665E-004        6024     2779839           0
<rwgt>
<wgt id='central'>  0.566469808E+03 </wgt>
<wgt id='sudakovwgt'>  0.211435008E+00 </wgt>
<wgt id='scales0.50.5'>  0.696520198E+03 </wgt>
<wgt id='scales0.51.0'>  0.667932996E+03 </wgt>
<wgt id='scales1.00.5'>  0.590714635E+03 </wgt>
<wgt id='scales1.02.0'>  0.539918957E+03 </wgt>
<wgt id='scales2.01.0'>  0.486703856E+03 </wgt>
<wgt id='scales2.02.0'>  0.463891536E+03 </wgt>
</rwgt>
<scales uborns=' 0.716234630E+03'> </scales>
</event>
<event>
      5  10001  1.22432E+07  4.21822E+01  7.29735E-03  1.43424E-01
      21    -1     0     0   511   513  0.000000000E+00  0.000000000E+00  4.283637189E+02  4.283637189E+02  0.000000000E+00  0.00000E+00  9.000E+00
      -2    -1     0     0     0   511  0.000000000E+00  0.000000000E+00 -9.480290160E+01  9.480290160E+01  0.000000000E+00  0.00000E+00  9.000E+00
      22     1     1     2     0     0 -7.704958013E+01 -4.046102932E+01 -5.668449449E+00  8.721160480E+01  1.951540177E-06  0.00000E+00  9.000E+00
      21     1     1     2   512   513  1.282667327E+02  2.971847477E+01  3.571449405E+02  3.806416307E+02  5.394796609E-06  0.00000E+00  9.000E+00
      -2     1     1     2     0   512 -5.121715262E+01  1.074255455E+01 -1.791567373E+01  5.531338505E+01  1.469710828E-06  0.00000E+00  9.000E+00
#rwgt            1         197   1.0420750318801669E-003        6024     2811395           0
<rwgt>
<wgt id='central'>  0.122431824E+08 </wgt>
<wgt id='sudakovwgt'>  0.356369571E-01 </wgt>
<wgt id='scales0.50.5'>  0.153861964E+08 </wgt>
<wgt id='scales0.51.0'>  0.150790956E+08 </wgt>
<wgt id='scales1.00.5'>  0.124925450E+08 </wgt>
<wgt id='scales1.02.0'>  0.119402071E+08 </wgt>
<wgt id='scales2.01.0'>  0.101474384E+08 </wgt>
<wgt id='scales2.02.0'>  0.989631103E+07 </wgt>
</rwgt>
<scales uborns=' 0.133657030E+03'> </scales>
</event>
<event>
      4  10001  2.82444E+03  8.94427E-01  7.29735E-03  7.52683E-01
      21    -1     0     0   515   512  0.000000000E+00  0.000000000E+00  1.082474579E+03  1.082474579E+03  0.000000000E+00  0.00000E+00  9.000E+00
       1    -1     0     0   512     0  0.000000000E+00  0.000000000E+00 -7.867202441E+02  7.867202441E+02  0.000000000E+00  0.00000E+00  9.000E+00
       1     1     1     2   514     0 -2.892965595E+02 -4.611367510E+02 -6.067904799E+02  8.151897257E+02  7.629394531E-06  0.00000E+00  9.000E+00
      21     1     1     2   515   514  2.892965595E+02  4.611367510E+02  9.025448150E+02  1.054005098E+03  1.078959322E-05  0.00000E+00  9.000E+00
#rwgt            1         186   2.6254855991133894E-003        6024     2811947           0
<rwgt>
<wgt id='central'>  0.282444070E+04 </wgt>
<wgt id='sudakovwgt'>  0.275931465E+01 </wgt>
<wgt id='scales0.50.5'>  0.378112439E+04 </wgt>
<wgt id='scales0.51.0'>  0.334970411E+04 </wgt>
<wgt id='scales1.00.5'>  0.318820965E+04 </wgt>
<wgt id='scales1.02.0'>  0.252291463E+04 </wgt>
<wgt id='scales2.01.0'>  0.241489710E+04 </wgt>
<wgt id='scales2.02.0'>  0.215709281E+04 </wgt>
</rwgt>
<scales uborns=' 0.544370832E+03'> </scales>
</event>
<event>
      5  10001  6.32953E+04  1.70121E+01  7.29735E-03  1.72384E-01
      21    -1     0     0   511   512  0.000000000E+00  0.000000000E+00  1.518075210E+02  1.518075210E+02  0.000000000E+00  0.00000E+00  9.000E+00
       2    -1     0     0   513     0  0.000000000E+00  0.000000000E+00 -1.149090162E+03  1.149090162E+03  0.000000000E+00  0.00000E+00  9.000E+00
       2     1     1     2   511     0 -3.207328334E+02 -4.923524671E+01 -9.678956937E+01  3.386176024E+02  9.631638468E-06  0.00000E+00  9.000E+00
      21     1     1     2   513   512  3.186644820E+02  3.234937938E+01 -8.274167305E+02  8.872496719E+02  0.000000000E+00  0.00000E+00  9.000E+00
      22     1     1     2     0     0  2.068351366E+00  1.688586733E+01 -7.307634081E+01  7.503040836E+01  0.000000000E+00  0.00000E+00  9.000E+00
#rwgt            1         187   8.4229236895041278E-004        6024     2813642           0
<rwgt>
<wgt id='central'>  0.632952660E+05 </wgt>
<wgt id='sudakovwgt'>  0.697703228E-01 </wgt>
<wgt id='scales0.50.5'>  0.796162111E+05 </wgt>
<wgt id='scales0.51.0'>  0.759977741E+05 </wgt>
<wgt id='scales1.00.5'>  0.663089417E+05 </wgt>
<wgt id='scales1.02.0'>  0.603777287E+05 </wgt>
<wgt id='scales2.01.0'>  0.535635105E+05 </wgt>
<wgt id='scales2.02.0'>  0.510945221E+05 </wgt>
</rwgt>
<scales uborns=' 0.322286261E+03'> </scales>
</event>
<event>
      5  10001  4.88025E+01  2.56229E+02  7.29735E-03  1.07866E-01
      21    -1     0     0   515   512  0.000000000E+00  0.000000000E+00  6.187227978E+02  6.187227978E+02  0.000000000E+00  0.00000E+00  9.000E+00
       2    -1     0     0   512     0  0.000000000E+00  0.000000000E+00 -2.044387431E+03  2.044387431E+03  0.000000000E+00  0.00000E+00  9.000E+00
      22     1     1     2     0     0  4.299831650E+02 -1.054238661E+02 -4.157654035E+02  6.073389371E+02  1.078959322E-05  0.00000E+00  9.000E+00
      21     1     1     2   515   514 -1.090639711E+03  9.659062440E+00 -4.330582623E+02  1.173510859E+03  1.078959322E-05  0.00000E+00  9.000E+00
       2     1     1     2   514     0  6.606565463E+02  9.576480367E+01 -5.768409676E+02  8.822604330E+02  1.525878906E-05  0.00000E+00  9.000E+00
#rwgt            1         187   8.7954403177480222E-003        6024     2814465           0
<rwgt>
<wgt id='central'>  0.488024527E+02 </wgt>
<wgt id='sudakovwgt'>  0.111103864E+00 </wgt>
<wgt id='scales0.50.5'>  0.643322620E+02 </wgt>
<wgt id='scales0.51.0'>  0.570678920E+02 </wgt>
<wgt id='scales1.00.5'>  0.550147396E+02 </wgt>
<wgt id='scales1.02.0'>  0.436176583E+02 </wgt>
<wgt id='scales2.01.0'>  0.422270842E+02 </wgt>
<wgt id='scales2.02.0'>  0.377408234E+02 </wgt>
</rwgt>
<scales uborns=' 0.110026167E+04'> </scales>
</event>
<event>
      5  10001  1.54923E+02  7.16305E+00  7.29735E-03  2.14149E-01
      21    -1     0     0   511   512  0.000000000E+00  0.000000000E+00  8.442236997E+02  8.442236997E+02  0.000000000E+00  0.00000E+00  9.000E+00
       1    -1     0     0   513     0  0.000000000E+00  0.000000000E+00 -9.548539090E+02  9.548539090E+02  0.000000000E+00  0.00000E+00  9.000E+00
       1     1     1     2   511     0 -2.553974175E+02  7.625802532E+02 -9.280843255E+00  8.042652656E+02  1.461225828E-05  0.00000E+00  9.000E+00
      21     1     1     2   513   512  2.781695416E+02 -8.524368454E+02 -9.852512206E+01  9.020720975E+02  1.286576992E-05  0.00000E+00  9.000E+00
      22     1     1     2     0     0 -2.277212414E+01  8.985659225E+01 -2.824243991E+00  9.274024565E+01  8.418826396E-07  0.00000E+00  9.000E+00
#rwgt            1         186   1.4645905756753559E-003        6024     2815089           0
<rwgt>
<wgt id='central'>  0.154923376E+03 </wgt>
<wgt id='sudakovwgt'>  0.289633509E-01 </wgt>
<wgt id='scales0.50.5'>  0.203172291E+03 </wgt>
<wgt id='scales0.51.0'>  0.181859376E+03 </wgt>
<wgt id='scales1.00.5'>  0.173079120E+03 </wgt>
<wgt id='scales1.02.0'>  0.139636792E+03 </wgt>
<wgt id='scales2.01.0'>  0.133611539E+03 </wgt>
<wgt id='scales2.02.0'>  0.120428127E+03 </wgt>
</rwgt>
<scales uborns=' 0.896799354E+03'> </scales>
</event>
<event>
      5  10001  1.27056E+02  4.61420E+01  7.29735E-03  1.41095E-01
      -2    -1     0     0     0   513  0.000000000E+00  0.000000000E+00  1.471553757E+03  1.471553757E+03  0.000000000E+00  0.00000E+00  9.000E+00
       2    -1     0     0   512     0  0.000000000E+00  0.000000000E+00 -7.059753866E+02  7.059753866E+02  0.000000000E+00  0.00000E+00  9.000E+00
       3     1     1     2   512     0 -8.866367950E+02  3.428557999E+02  2.185866442E+02  9.754255619E+02  1.427329020E-05  0.00000E+00  9.000E+00
      -3     1     1     2     0   513  8.511738355E+02 -3.133351945E+02  3.067665588E+02  9.574871090E+02  1.572839976E-05  0.00000E+00  9.000E+00
      22     1     1     2     0     0  3.546295945E+01 -2.952060535E+01  2.402251673E+02  2.446164725E+02  3.814697266E-06  0.00000E+00  9.000E+00
#rwgt            1          77   8.3454356083069641E-006        6024     2815641           0
<rwgt>
<wgt id='central'>  0.127055755E+03 </wgt>
<wgt id='sudakovwgt'>  0.477279967E-01 </wgt>
<wgt id='scales0.50.5'>  0.160073371E+03 </wgt>
<wgt id='scales0.51.0'>  0.149047629E+03 </wgt>
<wgt id='scales1.00.5'>  0.136454920E+03 </wgt>
<wgt id='scales1.02.0'>  0.118744660E+03 </wgt>
<wgt id='scales2.01.0'>  0.109640120E+03 </wgt>
<wgt id='scales2.02.0'>  0.102468036E+03 </wgt>
</rwgt>
<scales uborns=' 0.928530599E+03'> </scales>
</event>
<event>
      5  10001  6.08801E+06  9.39269E-01  7.29735E-03  7.04880E-01
       3    -1     0     0   515     0  0.000000000E+00  0.000000000E+00  3.756241940E+02  3.756241940E+02  0.000000000E+00  0.00000E+00  9.000E+00
      21    -1     0     0   514   515  0.000000000E+00  0.000000000E+00 -9.046625088E+01  9.046625088E+01  0.000000000E+00  0.00000E+00  9.000E+00
       3     1     1     2   511     0  1.047265447E+02 -1.078174991E+02  2.515661461E+02  2.930491224E+02  0.000000000E+00  0.00000E+00  9.000E+00
      21     1     1     2   514   511 -1.039045538E+02  1.082719841E+02  1.103873428E+01  1.504687093E+02  2.641501404E-06  0.00000E+00  9.000E+00
      22     1     1     2     0     0 -8.219908924E-01 -4.544849235E-01  2.255306276E+01  2.257261317E+01  0.000000000E+00  0.00000E+00  9.000E+00
#rwgt            1         183   7.3955047489565595E-004        6024     2815934           0
<rwgt>
<wgt id='central'>  0.608801475E+07 </wgt>
<wgt id='sudakovwgt'>  0.263652394E-01 </wgt>
<wgt id='scales0.50.5'>  0.727626220E+07 </wgt>
<wgt id='scales0.51.0'>  0.746985456E+07 </wgt>
<wgt id='scales1.00.5'>  0.593023019E+07 </wgt>
<wgt id='scales1.02.0'>  0.616717643E+07 </wgt>
<wgt id='scales2.01.0'>  0.506133406E+07 </wgt>
<wgt id='scales2.02.0'>  0.512714994E+07 </wgt>
</rwgt>
<scales uborns=' 0.150184518E+03'> </scales>
</event>
<event>
      5  10001  5.48720E+06  6.08548E+00  7.29735E-03  2.24521E-01
      21    -1     0     0   512   513  0.000000000E+00  0.000000000E+00  1.552284789E+02  1.552284789E+02  0.000000000E+00  0.00000E+00  9.000E+00
       5    -1     0     0   511     0  0.000000000E+00  0.000000000E+00 -2.589614684E+02  2.589614684E+02  0.000000000E+00  0.00000E+00  9.000E+00
       5     1     1     2   512     0  4.423099668E+01 -1.443335859E+02 -1.810774324E+02  2.357490225E+02  6.607249480E-06  0.00000E+00  9.000E+00
      21     1     1     2   511   513 -4.994261838E+01  1.464336844E+02  7.412791693E+01  1.715576787E+02  1.651812370E-06  0.00000E+00  9.000E+00
      22     1     1     2     0     0  5.711621702E+00 -2.100098492E+00  3.216525926E+00  6.883245976E+00  0.000000000E+00  0.00000E+00  9.000E+00
#rwgt            1         190   4.0033698559247037E-004        6024     2817383           0
<rwgt>
<wgt id='central'>  0.548719966E+07 </wgt>
<wgt id='sudakovwgt'>  0.278256424E-01 </wgt>
<wgt id='scales0.50.5'>  0.605534161E+07 </wgt>
<wgt id='scales0.51.0'>  0.672896654E+07 </wgt>
<wgt id='scales1.00.5'>  0.493788612E+07 </wgt>
<wgt id='scales1.02.0'>  0.587648268E+07 </wgt>
<wgt id='scales2.01.0'>  0.456387981E+07 </wgt>
<wgt id='scales2.02.0'>  0.488765867E+07 </wgt>
</rwgt>
<scales uborns=' 0.152811759E+03'> </scales>
</event>
<event>
      5  10001  6.12867E+00  8.71591E+00  7.29735E-03  2.02919E-01
      21    -1     0     0   515   511  0.000000000E+00  0.000000000E+00  8.913671682E+02  8.913671682E+02  0.000000000E+00  0.00000E+00  9.000E+00
       2    -1     0     0   511     0  0.000000000E+00  0.000000000E+00 -2.978057184E+03  2.978057184E+03  0.000000000E+00  0.00000E+00  9.000E+00
       2     1     1     2   514     0 -1.412265192E+03 -7.273574255E+02 -1.262598292E+03  2.029210744E+03  3.411968960E-05  0.00000E+00  9.000E+00
      21     1     1     2   515   514  1.440524297E+03  7.331011267E+02 -8.057746632E+02  1.806051029E+03  3.890243159E-05  0.00000E+00  9.000E+00
      22     1     1     2     0     0 -2.825910474E+01 -5.743701241E+00 -1.831706079E+01  3.416257924E+01  4.129530925E-07  0.00000E+00  9.000E+00
#rwgt            1         187   7.0628091393377624E-003        6024     2817524           0
<rwgt>
<wgt id='central'>  0.612867078E+01 </wgt>
<wgt id='sudakovwgt'>  0.448085962E-02 </wgt>
<wgt id='scales0.50.5'>  0.827043666E+01 </wgt>
<wgt id='scales0.51.0'>  0.711842571E+01 </wgt>
<wgt id='scales1.00.5'>  0.712050376E+01 </wgt>
<wgt id='scales1.02.0'>  0.532751311E+01 </wgt>
<wgt id='scales2.01.0'>  0.533364325E+01 </wgt>
<wgt id='scales2.02.0'>  0.463641449E+01 </wgt>
</rwgt>
<scales uborns=' 0.161697999E+04'> </scales>
</event>
<event>
      5  10001  2.60294E+05  1.38253E+02  7.29735E-03  1.17815E-01
      -1    -1     0     0     0   512  0.000000000E+00  0.000000000E+00  2.608891517E+02  2.608891517E+02  0.000000000E+00  0.00000E+00  9.000E+00
      21    -1     0     0   512   513  0.000000000E+00  0.000000000E+00 -2.479103211E+02  2.479103211E+02  0.000000000E+00  0.00000E+00  9.000E+00
      -1     1     1     2     0   511 -2.361960408E+02  1.666736136E+01  4.757641826E+01  2.415158095E+02  1.507891493E-06  0.00000E+00  9.000E+00
      21     1     1     2   511   513  1.920403618E+02  2.540897301E+01  6.354019742E+00  1.938181881E+02  2.878355138E-06  0.00000E+00  9.000E+00
      22     1     1     2     0     0  4.415567905E+01 -4.207633437E+01 -4.095160740E+01  7.346547526E+01  4.768371582E-07  0.00000E+00  9.000E+00
#rwgt            1         191   7.5475009997640400E-004        6024     2819502           0
<rwgt>
<wgt id='central'>  0.260294056E+06 </wgt>
<wgt id='sudakovwgt'>  0.260889201E-01 </wgt>
<wgt id='scales0.50.5'>  0.325247890E+06 </wgt>
<wgt id='scales0.51.0'>  0.314474001E+06 </wgt>
<wgt id='scales1.00.5'>  0.269211680E+06 </wgt>
<wgt id='scales1.02.0'>  0.251024038E+06 </wgt>
<wgt id='scales2.01.0'>  0.219148386E+06 </wgt>
<wgt id='scales2.02.0'>  0.211343760E+06 </wgt>
</rwgt>
<scales uborns=' 0.254310214E+03'> </scales>
</event>
<event>
      5  10001  8.10891E+02  3.17606E+01  7.29735E-03  1.51339E-01
      -2    -1     0     0     0   511  0.000000000E+00  0.000000000E+00  1.675572539E+03  1.675572539E+03  0.000000000E+00  0.00000E+00  9.000E+00
       1    -1     0     0   511     0  0.000000000E+00  0.000000000E+00 -6.165466695E+02  6.165466695E+02  0.000000000E+00  0.00000E+00  9.000E+00
       1     1     1     2   512     0  6.435313797E+02 -1.883790304E+02 -3.274434637E+02  7.462161333E+02  1.748113897E-05  0.00000E+00  9.000E+00
      -2     1     1     2     0   512 -5.974237405E+02  2.017481629E+02  1.329108248E+03  1.471103729E+03  1.525878906E-05  0.00000E+00  9.000E+00
      22     1     1     2     0     0 -4.610763920E+01 -1.336913243E+01  5.736108571E+01  7.479934658E+01  1.784161275E-06  0.00000E+00  9.000E+00
#rwgt            1         165   7.6775354625262596E-005        6024     2819609           0
<rwgt>
<wgt id='central'>  0.810891286E+03 </wgt>
<wgt id='sudakovwgt'>  0.163951065E-02 </wgt>
<wgt id='scales0.50.5'>  0.105312088E+04 </wgt>
<wgt id='scales0.51.0'>  0.957344600E+03 </wgt>
<wgt id='scales1.00.5'>  0.892015525E+03 </wgt>
<wgt id='scales1.02.0'>  0.741261005E+03 </wgt>
<wgt id='scales2.01.0'>  0.695962738E+03 </wgt>
<wgt id='scales2.02.0'>  0.636201461E+03 </wgt>
</rwgt>
<scales uborns=' 0.673453779E+03'> </scales>
</event>
<event>
      4  10001  3.65221E+05  8.94427E-01  7.29735E-03  7.50287E-01
       1    -1     0     0   514     0  0.000000000E+00  0.000000000E+00  1.087024545E+02  1.087024545E+02  0.000000000E+00  0.00000E+00  9.000E+00
      21    -1     0     0   512   514  0.000000000E+00  0.000000000E+00 -5.328279751E+02  5.328279751E+02  0.000000000E+00  0.00000E+00  9.000E+00
       1     1     1     2   513     0 -1.074959570E+02 -2.149162810E+02 -1.944149858E+02  3.090980028E+02  4.672030912E-06  0.00000E+00  9.000E+00
      21     1     1     2   512   513  1.074959570E+02  2.149162810E+02 -2.297105348E+02  3.324324269E+02  2.697398305E-06  0.00000E+00  9.000E+00
#rwgt            1         181   7.4890309224848824E-004        6024     2913070           0
<rwgt>
<wgt id='central'>  0.365220883E+06 </wgt>
<wgt id='sudakovwgt'>  0.203018486E+01 </wgt>
<wgt id='scales0.50.5'>  0.459692986E+06 </wgt>
<wgt id='scales0.51.0'>  0.441924621E+06 </wgt>
<wgt id='scales1.00.5'>  0.379905359E+06 </wgt>
<wgt id='scales1.02.0'>  0.350715766E+06 </wgt>
<wgt id='scales2.01.0'>  0.307098059E+06 </wgt>
<wgt id='scales2.02.0'>  0.294901254E+06 </wgt>
</rwgt>
<scales uborns=' 0.240300621E+03'> </scales>
</event>
<event>
      5  10001  1.22321E+03  6.50111E+01  7.29735E-03  1.32868E-01
      -2    -1     0     0     0   511  0.000000000E+00  0.000000000E+00  2.896903375E+02  2.896903375E+02  0.000000000E+00  0.00000E+00  9.000E+00
       1    -1     0     0   511     0  0.000000000E+00  0.000000000E+00 -2.017874152E+03  2.017874152E+03  0.000000000E+00  0.00000E+00  9.000E+00
       1     1     1     2   512     0  5.128606861E+01  6.220834685E+02 -1.514247494E+03  1.637853344E+03  2.157918644E-05  0.00000E+00  9.000E+00
      -2     1     1     2     0   512  9.105339652E+00 -4.814767365E+02 -1.651807478E+02  5.091045417E+02  9.536743164E-06  0.00000E+00  9.000E+00
      22     1     1     2     0     0 -6.039140826E+01 -1.406067320E+02 -4.875557228E+01  1.606066036E+02  3.693564745E-06  0.00000E+00  9.000E+00
#rwgt            1         165   2.6193305207764162E-004        6024     2913866           0
<rwgt>
<wgt id='central'>  0.122321242E+04 </wgt>
<wgt id='sudakovwgt'>  0.313401624E-02 </wgt>
<wgt id='scales0.50.5'>  0.157027862E+04 </wgt>
<wgt id='scales0.51.0'>  0.144625672E+04 </wgt>
<wgt id='scales1.00.5'>  0.132810481E+04 </wgt>
<wgt id='scales1.02.0'>  0.113129564E+04 </wgt>
<wgt id='scales2.01.0'>  0.104854244E+04 </wgt>
<wgt id='scales2.02.0'>  0.969752937E+03 </wgt>
</rwgt>
<scales uborns=' 0.627717787E+03'> </scales>
</event>
<event>
      5  10001  3.09683E+00  8.06106E+01  7.29735E-03  1.28190E-01
       2    -1     0     0   514     0  0.000000000E+00  0.000000000E+00  2.272968019E+03  2.272968019E+03  0.000000000E+00  0.00000E+00  9.000E+00
      21    -1     0     0   512   514  0.000000000E+00  0.000000000E+00 -1.507331072E+03  1.507331072E+03  0.000000000E+00  0.00000E+00  9.000E+00
       2     1     1     2   513     0  5.947424042E+02  1.596787253E+03  3.034903112E+02  1.730767006E+03  2.615224686E-05  0.00000E+00  9.000E+00
      21     1     1     2   512   513 -6.157679730E+02 -1.735252081E+03  3.598608258E+02  1.876104953E+03  4.196166992E-05  0.00000E+00  9.000E+00
      22     1     1     2     0     0  2.102556879E+01  1.384648279E+02  1.022858099E+02  1.734271317E+02  2.336015456E-06  0.00000E+00  9.000E+00
#rwgt            1         182   3.6689391116398098E-003        6024     3006834           0
<rwgt>
<wgt id='central'>  0.309682609E+01 </wgt>
<wgt id='sudakovwgt'>  0.169867478E-02 </wgt>
<wgt id='scales0.50.5'>  0.418712531E+01 </wgt>
<wgt id='scales0.51.0'>  0.358894367E+01 </wgt>
<wgt id='scales1.00.5'>  0.361298936E+01 </wgt>
<wgt id='scales1.02.0'>  0.268243144E+01 </wgt>
<wgt id='scales2.01.0'>  0.270027271E+01 </wgt>
<wgt id='scales2.02.0'>  0.233893898E+01 </wgt>
</rwgt>
<scales uborns=' 0.185086171E+04'> </scales>
</event>
<event>
      5  10001  2.11200E+06  3.27729E+01  7.29735E-03  1.50420E-01
      21    -1     0     0   511   515  0.000000000E+00  0.000000000E+00  1.670978323E+02  1.670978323E+02  0.000000000E+00  0.00000E+00  9.000E+00
       2    -1     0     0   513     0  0.000000000E+00  0.000000000E+00 -2.698041901E+02  2.698041901E+02  0.000000000E+00  0.00000E+00  9.000E+00
       2     1     1     2   511     0 -1.118470166E+02 -9.462806300E+01 -1.056060357E+02  1.806013848E+02  4.046097457E-06  0.00000E+00  9.000E+00
      21     1     1     2   513   515  1.311884764E+02  1.175488947E+02  6.466221011E+01  1.876415743E+02  3.693564745E-06  0.00000E+00  9.000E+00
      22     1     1     2     0     0 -1.934145982E+01 -2.292083166E+01 -6.176253224E+01  6.865906336E+01  1.168007728E-06  0.00000E+00  9.000E+00
#rwgt            1         187   3.7014056374967122E-003        6024     3008845           0
<rwgt>
<wgt id='central'>  0.211200237E+07 </wgt>
<wgt id='sudakovwgt'>  0.107079143E-02 </wgt>
<wgt id='scales0.50.5'>  0.259600314E+07 </wgt>
<wgt id='scales0.51.0'>  0.257723261E+07 </wgt>
<wgt id='scales1.00.5'>  0.212738214E+07 </wgt>
<wgt id='scales1.02.0'>  0.208461569E+07 </wgt>
<wgt id='scales2.01.0'>  0.176365728E+07 </wgt>
<wgt id='scales2.02.0'>  0.174078960E+07 </wgt>
</rwgt>
<scales uborns=' 0.179219377E+03'> </scales>
</event>
<event>
      5  10001  8.64184E+05  2.74101E+00  7.29735E-03  3.09296E-01
      21    -1     0     0   514   513  0.000000000E+00  0.000000000E+00  4.256573557E+02  4.256573557E+02  0.000000000E+00  0.00000E+00  9.000E+00
      21    -1     0     0   512   514  0.000000000E+00  0.000000000E+00 -1.079063433E+02  1.079063433E+02  0.000000000E+00  0.00000E+00  9.000E+00
       3     1     1     2   512     0 -1.061543353E+02 -1.789193277E+02  2.227552291E+02  3.047962611E+02  0.000000000E+00  0.00000E+00  9.000E+00
      -3     1     1     2     0   513  8.572255375E+01  1.415115362E+02  7.378687589E+01  1.811584228E+02  1.348699152E-06  0.00000E+00  9.000E+00
      22     1     1     2     0     0  2.043178150E+01  3.740779144E+01  2.120890740E+01  4.760901499E+01  4.129530925E-07  0.00000E+00  9.000E+00
#rwgt            1         203   1.5708634412065175E-004        6024     3009417           0
<rwgt>
<wgt id='central'>  0.864183709E+06 </wgt>
<wgt id='sudakovwgt'>  0.391499736E-01 </wgt>
<wgt id='scales0.50.5'>  0.110443095E+07 </wgt>
<wgt id='scales0.51.0'>  0.104992494E+07 </wgt>
<wgt id='scales1.00.5'>  0.909047420E+06 </wgt>
<wgt id='scales1.02.0'>  0.819311481E+06 </wgt>
<wgt id='scales2.01.0'>  0.724242834E+06 </wgt>
<wgt id='scales2.02.0'>  0.686636722E+06 </wgt>
</rwgt>
<scales uborns=' 0.208073925E+03'> </scales>
</event>
<event>
      5  10001  7.67901E+05  8.91045E+00  7.29735E-03  2.01732E-01
       2    -1     0     0   512     0  0.000000000E+00  0.000000000E+00  1.478801375E+02  1.478801375E+02  0.000000000E+00  0.00000E+00  9.000E+00
      21    -1     0     0   511   514  0.000000000E+00  0.000000000E+00 -4.256978168E+02  4.256978168E+02  0.000000000E+00  0.00000E+00  9.000E+00
       2     1     1     2   511     0 -2.011024100E+02 -7.042531855E+01 -1.492899018E+01  2.135995776E+02  4.234867017E-06  0.00000E+00  9.000E+00
      21     1     1     2   512   514  2.022911377E+02  6.159451921E+01 -2.737617634E+02  3.459206445E+02  7.629394531E-06  0.00000E+00  9.000E+00
      22     1     1     2     0     0 -1.188727654E+00  8.830799340E+00  1.087307420E+01  1.405773215E+01  2.384185791E-07  0.00000E+00  9.000E+00
#rwgt            1         182   1.5237524437219689E-003        6024     3010136           0
<rwgt>
<wgt id='central'>  0.767900919E+06 </wgt>
<wgt id='sudakovwgt'>  0.498959027E-01 </wgt>
<wgt id='scales0.50.5'>  0.964602027E+06 </wgt>
<wgt id='scales0.51.0'>  0.932419767E+06 </wgt>
<wgt id='scales1.00.5'>  0.794404932E+06 </wgt>
<wgt id='scales1.02.0'>  0.741085792E+06 </wgt>
<wgt id='scales2.01.0'>  0.643849639E+06 </wgt>
<wgt id='scales2.02.0'>  0.621366321E+06 </wgt>
</rwgt>
<scales uborns=' 0.212222490E+03'> </scales>
</event>
<event>
      5  10001  2.52887E+03  4.04705E+01  7.29735E-03  1.44526E-01
       2    -1     0     0   511     0  0.000000000E+00  0.000000000E+00  6.133497320E+02  6.133497320E+02  0.000000000E+00  0.00000E+00  9.000E+00
      21    -1     0     0   513   515  0.000000000E+00  0.000000000E+00 -7.593548164E+02  7.593548164E+02  0.000000000E+00  0.00000E+00  9.000E+00
       2     1     1     2   513     0  2.658639323E+02 -4.642961348E+02 -3.410618316E+02  6.344901136E+02  1.009274029E-05  0.00000E+00  9.000E+00
      21     1     1     2   511   515 -2.913658207E+02  4.957208978E+02  3.825959680E+01  5.762786190E+02  6.843900726E-06  0.00000E+00  9.000E+00
      22     1     1     2     0     0  2.550188835E+01 -3.142476304E+01  1.567971505E+02  1.619358158E+02  1.907348633E-06  0.00000E+00  9.000E+00
#rwgt            1         182   8.4594978342498984E-004        6024     3012901           0
<rwgt>
<wgt id='central'>  0.252886754E+04 </wgt>
<wgt id='sudakovwgt'>  0.442254102E-01 </wgt>
<wgt id='scales0.50.5'>  0.325151781E+04 </wgt>
<wgt id='scales0.51.0'>  0.299793727E+04 </wgt>
<wgt id='scales1.00.5'>  0.274277449E+04 </wgt>
<wgt id='scales1.02.0'>  0.234202339E+04 </wgt>
<wgt id='scales2.01.0'>  0.216292953E+04 </wgt>
<wgt id='scales2.02.0'>  0.200312058E+04 </wgt>
</rwgt>
<scales uborns=' 0.554685632E+03'> </scales>
</event>
<event>
      5  10001  7.52034E+01  6.04113E+00  7.29735E-03  2.25011E-01
       2    -1     0     0   511     0  0.000000000E+00  0.000000000E+00  1.567382614E+03  1.567382614E+03  0.000000000E+00  0.00000E+00  9.000E+00
      21    -1     0     0   514   511  0.000000000E+00  0.000000000E+00 -7.129846685E+02  7.129846685E+02  0.000000000E+00  0.00000E+00  9.000E+00
       2     1     1     2   512     0  7.076210283E+02 -4.997641299E+02  1.090734646E+02  8.731487421E+02  2.677091379E-05  0.00000E+00  9.000E+00
      21     1     1     2   514   512 -8.318140201E+02  5.878181632E+02  7.321914355E+02  1.254411836E+03  2.642899792E-05  0.00000E+00  9.000E+00
      22     1     1     2     0     0  1.241929918E+02 -8.805403333E+01  1.313304566E+01  1.528067043E+02  1.227334755E-06  0.00000E+00  9.000E+00
#rwgt            1         182   2.8975942513937425E-003        6024     3014679           0
<rwgt>
<wgt id='central'>  0.752033773E+02 </wgt>
<wgt id='sudakovwgt'>  0.929539618E+00 </wgt>
<wgt id='scales0.50.5'>  0.985272523E+02 </wgt>
<wgt id='scales0.51.0'>  0.880658257E+02 </wgt>
<wgt id='scales1.00.5'>  0.841368863E+02 </wgt>
<wgt id='scales1.02.0'>  0.676920817E+02 </wgt>
<wgt id='scales2.01.0'>  0.649917377E+02 </wgt>
<wgt id='scales2.02.0'>  0.585003606E+02 </wgt>
</rwgt>
<scales uborns=' 0.101859712E+04'> </scales>
</event>
<event>
      5  10001  7.04236E-01  2.23480E+01  7.29735E-03  1.62487E-01
       1    -1     0     0   513     0  0.000000000E+00  0.000000000E+00  1.999475362E+03  1.999475362E+03  0.000000000E+00  0.00000E+00  9.000E+00
       1    -1     0     0   512     0  0.000000000E+00  0.000000000E+00 -4.331334016E+03  4.331334016E+03  0.000000000E+00  0.00000E+00  9.000E+00
       1     1     1     2   513     0 -4.095405765E+02 -2.524143871E+03 -2.680669585E+03  3.704728761E+03  6.823937920E-05  0.00000E+00  9.000E+00
       1     1     1     2   512     0  4.235295497E+02  2.506715723E+03  2.846385573E+02  2.558128242E+03  5.060767808E-05  0.00000E+00  9.000E+00
      22     1     1     2     0     0 -1.398897314E+01  1.742814847E+01  6.417237367E+01  6.795237502E+01  9.536743164E-07  0.00000E+00  9.000E+00
#rwgt            1          91   7.3478506266907225E-004        6024     3021690           0
<rwgt>
<wgt id='central'>  0.704236194E+00 </wgt>
<wgt id='sudakovwgt'>  0.355667042E-01 </wgt>
<wgt id='scales0.50.5'>  0.972601358E+00 </wgt>
<wgt id='scales0.51.0'>  0.812053879E+00 </wgt>
<wgt id='scales1.00.5'>  0.843467297E+00 </wgt>
<wgt id='scales1.02.0'>  0.594907846E+00 </wgt>
<wgt id='scales2.01.0'>  0.616725598E+00 </wgt>
<wgt id='scales2.02.0'>  0.520982876E+00 </wgt>
</rwgt>
<scales uborns=' 0.254967554E+04'> </scales>
</event>
<event>
      5  10001  1.48803E+02  2.13945E+02  7.29735E-03  1.10593E-01
      21    -1     0     0   511   514  0.000000000E+00  0.000000000E+00  7.437691719E+02  7.437691719E+02  0.000000000E+00  0.00000E+00  9.000E+00
       4    -1     0     0   513     0  0.000000000E+00  0.000000000E+00 -1.470478419E+03  1.470478419E+03  0.000000000E+00  0.00000E+00  9.000E+00
       4     1     1     2   511     0  1.011248087E+03  3.582861821E+01 -6.201135754E+02  1.186780194E+03  2.530383904E-05  0.00000E+00  9.000E+00
      21     1     1     2   513   514 -8.061060635E+02  2.491010365E+01 -1.067295814E+02  8.135224044E+02  2.000444123E-05  0.00000E+00  9.000E+00
      22     1     1     2     0     0 -2.051420232E+02 -6.073872186E+01  1.339091995E-01  2.139449928E+02  4.111465459E-06  0.00000E+00  9.000E+00
#rwgt            1         189   1.2156974564825237E-004        6024     3025109           0
<rwgt>
<wgt id='central'>  0.148802752E+03 </wgt>
<wgt id='sudakovwgt'>  0.226083385E-01 </wgt>
<wgt id='scales0.50.5'>  0.186607472E+03 </wgt>
<wgt id='scales0.51.0'>  0.174651547E+03 </wgt>
<wgt id='scales1.00.5'>  0.158989440E+03 </wgt>
<wgt id='scales1.02.0'>  0.139231210E+03 </wgt>
<wgt id='scales2.01.0'>  0.128348234E+03 </wgt>
<wgt id='scales2.02.0'>  0.120092202E+03 </wgt>
</rwgt>
<scales uborns=' 0.903151588E+03'> </scales>
</event>
<event>
      5  10001  3.87456E+01  3.82120E+02  7.29735E-03  1.02287E-01
       2    -1     0     0   511     0  0.000000000E+00  0.000000000E+00  2.976172939E+03  2.976172939E+03  0.000000000E+00  0.00000E+00  9.000E+00
       1    -1     0     0   512     0  0.000000000E+00  0.000000000E+00 -1.042927530E+03  1.042927530E+03  0.000000000E+00  0.00000E+00  9.000E+00
       2     1     1     2   512     0 -7.163281028E+02  2.627408851E+02  1.194398353E+03  1.417302420E+03  2.157918644E-05  0.00000E+00  9.000E+00
       1     1     1     2   511     0  1.028176721E+03 -4.715538832E+02 -5.511731995E+02  1.258293420E+03  3.737624730E-05  0.00000E+00  9.000E+00
      22     1     1     2     0     0 -3.118486182E+02  2.088129980E+02  1.290020255E+03  1.343504629E+03  1.525878906E-05  0.00000E+00  9.000E+00
#rwgt            1          92   3.1745276430325030E-003        6024     3026426           0
<rwgt>
<wgt id='central'>  0.387455606E+02 </wgt>
<wgt id='sudakovwgt'>  0.460305108E-03 </wgt>
<wgt id='scales0.50.5'>  0.511315688E+02 </wgt>
<wgt id='scales0.51.0'>  0.452734091E+02 </wgt>
<wgt id='scales1.00.5'>  0.437590929E+02 </wgt>
<wgt id='scales1.02.0'>  0.345809783E+02 </wgt>
<wgt id='scales2.01.0'>  0.335468684E+02 </wgt>
<wgt id='scales2.02.0'>  0.299410392E+02 </wgt>
</rwgt>
<scales uborns=' 0.114687720E+04'> </scales>
</event>
<event>
      5  10001  6.70937E+01  6.60766E+00  7.29735E-03  2.19156E-01
       2    -1     0     0   512     0  0.000000000E+00  0.000000000E+00  3.155286062E+03  3.155286062E+03  0.000000000E+00  0.00000E+00  9.000E+00
      21    -1     0     0   513   514  0.000000000E+00  0.000000000E+00 -1.368910522E+03  1.368910522E+03  0.000000000E+00  0.00000E+00  9.000E+00
       2     1     1     2   513     0 -1.031039893E+03  1.440515621E+02  8.794088611E+02  1.362774398E+03  2.642899792E-05  0.00000E+00  9.000E+00
      21     1     1     2   512   514  1.027077275E+03 -1.493391677E+02 -8.883179293E+02  1.366125419E+03  2.157918644E-05  0.00000E+00  9.000E+00
      22     1     1     2     0     0  3.962617755E+00  5.287605530E+00  1.795284608E+03  1.795296768E+03  3.051757812E-05  0.00000E+00  9.000E+00
#rwgt            1         182   4.9064461298207835E-003        6024     3029075           0
<rwgt>
<wgt id='central'>  0.670937046E+02 </wgt>
<wgt id='sudakovwgt'>  0.827017811E-01 </wgt>
<wgt id='scales0.50.5'>  0.898060981E+02 </wgt>
<wgt id='scales0.51.0'>  0.785393868E+02 </wgt>
<wgt id='scales1.00.5'>  0.767184931E+02 </wgt>
<wgt id='scales1.02.0'>  0.592227086E+02 </wgt>
<wgt id='scales2.01.0'>  0.580018977E+02 </wgt>
<wgt id='scales2.02.0'>  0.511974967E+02 </wgt>
</rwgt>
<scales uborns=' 0.103946122E+04'> </scales>
</event>
<event>
      5  10001  8.96574E+02  2.53504E+01  7.29735E-03  1.58299E-01
       2    -1     0     0   513     0  0.000000000E+00  0.000000000E+00  5.614619046E+02  5.614619046E+02  0.000000000E+00  0.00000E+00  9.000E+00
      21    -1     0     0   511   515  0.000000000E+00  0.000000000E+00 -8.489048060E+02  8.489048060E+02  0.000000000E+00  0.00000E+00  9.000E+00
       2     1     1     2   511     0 -4.606586724E+02 -4.696689618E+02  3.873539131E+01  6.590112113E+02  8.148196931E-06  0.00000E+00  9.000E+00
      21     1     1     2   513   515  4.541738982E+02  4.699026529E+02 -3.395722157E+02  7.364724860E+02  1.321449896E-05  0.00000E+00  9.000E+00
      22     1     1     2     0     0  6.484774186E+00 -2.336910399E-01  1.339392309E+01  1.488301326E+01  1.685873940E-07  0.00000E+00  9.000E+00
#rwgt            1         182   2.6314451767188926E-003        6024     3035991           0
<rwgt>
<wgt id='central'>  0.896574283E+03 </wgt>
<wgt id='sudakovwgt'>  0.159501326E-02 </wgt>
<wgt id='scales0.50.5'>  0.115805985E+04 </wgt>
<wgt id='scales0.51.0'>  0.105888093E+04 </wgt>
<wgt id='scales1.00.5'>  0.980550625E+03 </wgt>
<wgt id='scales1.02.0'>  0.824118830E+03 </wgt>
<wgt id='scales2.01.0'>  0.769269843E+03 </wgt>
<wgt id='scales2.02.0'>  0.707102551E+03 </wgt>
</rwgt>
<scales uborns=' 0.661964346E+03'> </scales>
</event>
<event>
      5  10001  9.12339E+02  7.43500E+00  7.29735E-03  2.11918E-01
       2    -1     0     0   511     0  0.000000000E+00  0.000000000E+00  2.217711231E+03  2.217711231E+03  0.000000000E+00  0.00000E+00  9.000E+00
      21    -1     0     0   512   514  0.000000000E+00  0.000000000E+00 -9.666912095E+02  9.666912095E+02  0.000000000E+00  0.00000E+00  9.000E+00
       2     1     1     2   512     0 -6.409946954E+02  4.589987785E+01  1.989009393E+03  2.090248637E+03  0.000000000E+00  0.00000E+00  9.000E+00
      21     1     1     2   511   514  6.575984857E+02 -5.440024578E+01 -7.955864116E+02  1.033611578E+03  2.642899792E-05  0.00000E+00  9.000E+00
      22     1     1     2     0     0 -1.660379033E+01  8.500367930E+00  5.759704042E+01  6.054222636E+01  6.743495762E-07  0.00000E+00  9.000E+00
#rwgt            1         182   9.5933366168793905E-003        6024     3038447           0
<rwgt>
<wgt id='central'>  0.912339452E+03 </wgt>
<wgt id='sudakovwgt'>  0.140106272E-02 </wgt>
<wgt id='scales0.50.5'>  0.125032291E+04 </wgt>
<wgt id='scales0.51.0'>  0.107756682E+04 </wgt>
<wgt id='scales1.00.5'>  0.105860568E+04 </wgt>
<wgt id='scales1.02.0'>  0.794639776E+03 </wgt>
<wgt id='scales2.01.0'>  0.782755347E+03 </wgt>
<wgt id='scales2.02.0'>  0.681773478E+03 </wgt>
</rwgt>
<scales uborns=' 0.659991665E+03'> </scales>
</event>
<event>
      5  10001  4.92572E+01  9.09928E+01  7.29735E-03  1.25700E-01
      21    -1     0     0   513   512  0.000000000E+00  0.000000000E+00  1.301159609E+03  1.301159609E+03  0.000000000E+00  0.00000E+00  9.000E+00
       2    -1     0     0   515     0  0.000000000E+00  0.000000000E+00 -1.091988274E+03  1.091988274E+03  0.000000000E+00  0.00000E+00  9.000E+00
       2     1     1     2   513     0 -5.710734106E+02 -9.719341969E+02  1.255736100E+02  1.134261722E+03  3.122464284E-05  0.00000E+00  9.000E+00
      21     1     1     2   515   512  4.812662007E+02  9.572931900E+02  2.210687648E+02  1.094028705E+03  3.401289845E-05  0.00000E+00  9.000E+00
      22     1     1     2     0     0  8.980720983E+01  1.464100693E+01 -1.374710395E+02  1.648574557E+02  0.000000000E+00  0.00000E+00  9.000E+00
#rwgt            1         187   2.6100806856332640E-003        6024     3045272           0
<rwgt>
<wgt id='central'>  0.492572328E+02 </wgt>
<wgt id='sudakovwgt'>  0.304365952E-01 </wgt>
<wgt id='scales0.50.5'>  0.647737755E+02 </wgt>
<wgt id='scales0.51.0'>  0.576013592E+02 </wgt>
<wgt id='scales1.00.5'>  0.553906169E+02 </wgt>
<wgt id='scales1.02.0'>  0.441462123E+02 </wgt>
<wgt id='scales2.01.0'>  0.426194115E+02 </wgt>
<wgt id='scales2.02.0'>  0.381971689E+02 </wgt>
</rwgt>
<scales uborns=' 0.109843377E+04'> </scales>
</event>
<event>
      5  10001  9.53174E+02  6.94780E+01  7.29735E-03  1.31385E-01
       5    -1     0     0   513     0  0.000000000E+00  0.000000000E+00  9.458680842E+02  9.458680842E+02  0.000000000E+00  0.00000E+00  9.000E+00
       2    -1     0     0   511     0  0.000000000E+00  0.000000000E+00 -8.610649498E+02  8.610649498E+02  0.000000000E+00  0.00000E+00  9.000E+00
       5     1     1     2   511     0  3.828334757E+02 -5.685250079E+02  4.885624472E+02  8.417098191E+02  9.344061824E-06  0.00000E+00  9.000E+00
       2     1     1     2   513     0 -3.202713000E+02  5.383063810E+02 -7.692104270E+01  6.310818586E+02  8.946258087E-06  0.00000E+00  9.000E+00
      22     1     1     2     0     0 -6.256217567E+01  3.021862687E+01 -3.268382701E+02  3.341413563E+02  6.607249480E-06  0.00000E+00  9.000E+00
#rwgt            1         100   2.5907463122180739E-005        6024     3045757           0
<rwgt>
<wgt id='central'>  0.953174394E+03 </wgt>
<wgt id='sudakovwgt'>  0.356807723E-01 </wgt>
<wgt id='scales0.50.5'>  0.111197423E+04 </wgt>
<wgt id='scales0.51.0'>  0.112597308E+04 </wgt>
<wgt id='scales1.00.5'>  0.941323499E+03 </wgt>
<wgt id='scales1.02.0'>  0.954693295E+03 </wgt>
<wgt id='scales2.01.0'>  0.817682595E+03 </wgt>
<wgt id='scales2.02.0'>  0.818985926E+03 </wgt>
</rwgt>
<scales uborns=' 0.655063639E+03'> </scales>
</event>
<event>
      5  10001  2.21297E+04  2.13749E+02  7.29735E-03  1.10607E-01
      21    -1     0     0   512   511  0.000000000E+00  0.000000000E+00  5.796080580E+01  5.796080580E+01  0.000000000E+00  0.00000E+00  9.000E+00
       2    -1     0     0   514     0  0.000000000E+00  0.000000000E+00 -2.550924496E+03  2.550924496E+03  0.000000000E+00  0.00000E+00  9.000E+00
       2     1     1     2   512     0  2.880499495E+02 -2.259543873E+01 -6.534184706E+02  7.144501557E+02  0.000000000E+00  0.00000E+00  9.000E+00
      21     1     1     2   514   511 -2.945247298E+02  1.273203231E+02 -1.049534189E+03  1.097486808E+03  2.157918644E-05  0.00000E+00  9.000E+00
      22     1     1     2     0     0  6.474780319E+00 -1.047248844E+02 -7.900110315E+02  7.969483384E+02  0.000000000E+00  0.00000E+00  9.000E+00
#rwgt            1         187   1.1814070514581401E-002        6024     3047382           0
<rwgt>
<wgt id='central'>  0.221296704E+05 </wgt>
<wgt id='sudakovwgt'>  0.495659009E-03 </wgt>
<wgt id='scales0.50.5'>  0.281164360E+05 </wgt>
<wgt id='scales0.51.0'>  0.264554265E+05 </wgt>
<wgt id='scales1.00.5'>  0.235191179E+05 </wgt>
<wgt id='scales1.02.0'>  0.208211518E+05 </wgt>
<wgt id='scales2.01.0'>  0.187950556E+05 </wgt>
<wgt id='scales2.02.0'>  0.176836878E+05 </wgt>
</rwgt>
<scales uborns=' 0.384503227E+03'> </scales>
</event>
<event>
      5  10001  9.07041E+01  3.63036E+01  7.29735E-03  1.47501E-01
      21    -1     0     0   515   511  0.000000000E+00  0.000000000E+00  2.098510582E+03  2.098510582E+03  0.000000000E+00  0.00000E+00  9.000E+00
      -4    -1     0     0     0   513  0.000000000E+00  0.000000000E+00 -8.234063127E+02  8.234063127E+02  0.000000000E+00  0.00000E+00  9.000E+00
      -4     1     1     2     0   511 -7.554024329E+02 -5.068181419E+02 -2.796274600E+02  9.516769310E+02  3.075507259E-05  0.00000E+00  9.000E+00
      21     1     1     2   515   513  8.304573944E+02  5.269394491E+02  1.601610135E+03  1.879489210E+03  2.157918644E-05  0.00000E+00  9.000E+00
      22     1     1     2     0     0 -7.505496145E+01 -2.012130724E+01 -4.687840611E+01  9.075075318E+01  2.523185073E-06  0.00000E+00  9.000E+00
#rwgt            1         199   8.1509156636282214E-005        6024     3047541           0
<rwgt>
<wgt id='central'>  0.907041490E+02 </wgt>
<wgt id='sudakovwgt'>  0.145617893E-02 </wgt>
<wgt id='scales0.50.5'>  0.119453269E+03 </wgt>
<wgt id='scales0.51.0'>  0.106283872E+03 </wgt>
<wgt id='scales1.00.5'>  0.101943042E+03 </wgt>
<wgt id='scales1.02.0'>  0.810647432E+02 </wgt>
<wgt id='scales2.01.0'>  0.783460995E+02 </wgt>
<wgt id='scales2.02.0'>  0.700200590E+02 </wgt>
</rwgt>
<scales uborns=' 0.985340699E+03'> </scales>
</event>
<event>
      5  10001  4.32628E+04  9.18154E+00  7.29735E-03  2.00144E-01
       2    -1     0     0   513     0  0.000000000E+00  0.000000000E+00  2.489291949E+03  2.489291949E+03  0.000000000E+00  0.00000E+00  9.000E+00
      21    -1     0     0   512   514  0.000000000E+00  0.000000000E+00 -9.008418663E+01  9.008418663E+01  0.000000000E+00  0.00000E+00  9.000E+00
       2     1     1     2   512     0 -2.936017467E+02 -1.370096409E+02  1.996720258E+03  2.022835984E+03  2.157918644E-05  0.00000E+00  9.000E+00
      21     1     1     2   513   514  3.139093685E+02  1.380328519E+02  3.113926571E+02  4.632035695E+02  3.814697266E-06  0.00000E+00  9.000E+00
      22     1     1     2     0     0 -2.030762183E+01 -1.023210999E+00  9.109484664E+01  9.333658206E+01  1.348699152E-06  0.00000E+00  9.000E+00
#rwgt            1         182   1.9570560319514402E-002        6024     3048051           0
<rwgt>
<wgt id='central'>  0.432627607E+05 </wgt>
<wgt id='sudakovwgt'>  0.128845681E+00 </wgt>
<wgt id='scales0.50.5'>  0.558262266E+05 </wgt>
<wgt id='scales0.51.0'>  0.518620103E+05 </wgt>
<wgt id='scales1.00.5'>  0.465697119E+05 </wgt>
<wgt id='scales1.02.0'>  0.402486257E+05 </wgt>
<wgt id='scales2.01.0'>  0.366596698E+05 </wgt>
<wgt id='scales2.02.0'>  0.341055440E+05 </wgt>
</rwgt>
<scales uborns=' 0.343538446E+03'> </scales>
</event>
<event>
      5  10001  5.53519E+01  2.11577E+03  7.29735E-03  8.38045E-02
       2    -1     0     0   502     0  0.000000000E+00  0.000000000E+00  1.432267129E+03  1.432267129E+03  0.000000000E+00  0.00000E+00  9.000E+00
      21    -1     0     0   501   502  0.000000000E+00  0.000000000E+00 -8.164733395E+02  8.164733395E+02  0.000000000E+00  0.00000E+00  9.000E+00
      22     1     1     2     0     0  3.763761706E+02 -4.114782178E+01  1.487820736E+02  4.068024957E+02  1.779056368E-05  0.00000E+00  9.000E+00
       2     1     1     2   511     0  5.513909355E+02 -2.729747348E+02  5.928187494E+02  8.543893955E+02  7.629394531E-06  0.00000E+00  9.000E+00
      21     1     1     2   501   511 -9.277671061E+02  3.141225566E+02 -1.258070333E+02  9.875485777E+02  3.438521648E-05  0.00000E+00  9.000E+00
#rwgt            1          12   7.8231756115654629E-005        6024     3052096           0
<rwgt>
<wgt id='central'>  0.553519479E+02 </wgt>
<wgt id='sudakovwgt'>  0.100000000E+01 </wgt>
<wgt id='scales0.50.5'>  0.696427953E+02 </wgt>
<wgt id='scales0.51.0'>  0.639644811E+02 </wgt>
<wgt id='scales1.00.5'>  0.602873203E+02 </wgt>
<wgt id='scales1.02.0'>  0.511725220E+02 </wgt>
<wgt id='scales2.01.0'>  0.505758232E+02 </wgt>
<wgt id='scales2.02.0'>  0.466868334E+02 </wgt>
</rwgt>
<scales uborns=' 0.107573780E+04'> </scales>
</event>
<event>
      5  10001  1.66325E+02  1.62432E+02  7.29735E-03  1.15039E-01
       2    -1     0     0   513     0  0.000000000E+00  0.000000000E+00  2.841168897E+03  2.841168897E+03  0.000000000E+00  0.00000E+00  9.000E+00
       1    -1     0     0   512     0  0.000000000E+00  0.000000000E+00 -2.315324971E+03  2.315324971E+03  0.000000000E+00  0.00000E+00  9.000E+00
       2     1     1     2   512     0 -6.209985019E+02 -6.129312588E+02  2.686619680E+03  2.824756480E+03  5.285799584E-05  0.00000E+00  9.000E+00
       1     1     1     2   513     0  6.068371408E+02  6.062705252E+02 -2.088696688E+03  2.257978990E+03  4.315837288E-05  0.00000E+00  9.000E+00
      22     1     1     2     0     0  1.416136107E+01  6.660733602E+00 -7.207906612E+01  7.375839812E+01  2.697398305E-06  0.00000E+00  9.000E+00
#rwgt            1          92  0.14472523492896167             6024     3052173           0
<rwgt>
<wgt id='central'>  0.166325004E+03 </wgt>
<wgt id='sudakovwgt'>  0.865785791E-01 </wgt>
<wgt id='scales0.50.5'>  0.229887861E+03 </wgt>
<wgt id='scales0.51.0'>  0.195290678E+03 </wgt>
<wgt id='scales1.00.5'>  0.195790700E+03 </wgt>
<wgt id='scales1.02.0'>  0.142931190E+03 </wgt>
<wgt id='scales2.01.0'>  0.143415849E+03 </wgt>
<wgt id='scales2.02.0'>  0.123244238E+03 </wgt>
</rwgt>
<scales uborns=' 0.885727242E+03'> </scales>
</event>
<event>
      5  10001  1.41782E+00  1.71265E+01  7.29735E-03  1.72125E-01
      21    -1     0     0   512   514  0.000000000E+00  0.000000000E+00  1.573498489E+03  1.573498489E+03  0.000000000E+00  0.00000E+00  9.000E+00
       2    -1     0     0   514     0  0.000000000E+00  0.000000000E+00 -3.022307460E+03  3.022307460E+03  0.000000000E+00  0.00000E+00  9.000E+00
       2     1     1     2   511     0 -5.945671287E+02 -1.598599713E+03 -6.526498812E+02  1.826193577E+03  2.412626389E-05  0.00000E+00  9.000E+00
      21     1     1     2   512   511  7.473982488E+02  2.046447946E+03 -6.271360468E+02  2.267124381E+03  5.958747617E-05  0.00000E+00  9.000E+00
      22     1     1     2     0     0 -1.528311201E+02 -4.478482334E+02 -1.690230432E+02  5.024879905E+02  1.414527605E-05  0.00000E+00  9.000E+00
#rwgt            1         187   3.1393600573677715E-003        6024     3059288           0
<rwgt>
<wgt id='central'>  0.141782403E+01 </wgt>
<wgt id='sudakovwgt'>  0.535480322E+00 </wgt>
<wgt id='scales0.50.5'>  0.194464012E+01 </wgt>
<wgt id='scales0.51.0'>  0.163885149E+01 </wgt>
<wgt id='scales1.00.5'>  0.168236700E+01 </wgt>
<wgt id='scales1.02.0'>  0.120877649E+01 </wgt>
<wgt id='scales2.01.0'>  0.123904166E+01 </wgt>
<wgt id='scales2.02.0'>  0.105635724E+01 </wgt>
</rwgt>
<scales uborns=' 0.217877980E+04'> </scales>
</event>
<event>
      5  10001  1.26556E+04  2.72295E+00  7.29735E-03  3.10250E-01
      21    -1     0     0   513   514  0.000000000E+00  0.000000000E+00  1.176756066E+02  1.176756066E+02  0.000000000E+00  0.00000E+00  9.000E+00
       2    -1     0     0   511     0  0.000000000E+00  0.000000000E+00 -1.732138464E+03  1.732138464E+03  0.000000000E+00  0.00000E+00  9.000E+00
       2     1     1     2   513     0 -1.465815905E+02 -3.953154118E+02 -1.127427497E+03  1.203683180E+03  3.051757812E-05  0.00000E+00  9.000E+00
      21     1     1     2   511   514  1.450525947E+02  3.959235027E+02 -4.799832156E+02  6.388893195E+02  7.629394531E-06  0.00000E+00  9.000E+00
      22     1     1     2     0     0  1.528995847E+00 -6.080909144E-01 -7.052145083E+00  7.241571178E+00  0.000000000E+00  0.00000E+00  9.000E+00
#rwgt            1         187   1.5475897416820032E-002        6024     3061458           0
<rwgt>
<wgt id='central'>  0.126556171E+05 </wgt>
<wgt id='sudakovwgt'>  0.264180883E+00 </wgt>
<wgt id='scales0.50.5'>  0.160305070E+05 </wgt>
<wgt id='scales0.51.0'>  0.150956496E+05 </wgt>
<wgt id='scales1.00.5'>  0.134393477E+05 </wgt>
<wgt id='scales1.02.0'>  0.119244129E+05 </wgt>
<wgt id='scales2.01.0'>  0.107686132E+05 </wgt>
<wgt id='scales2.02.0'>  0.101464482E+05 </wgt>
</rwgt>
<scales uborns=' 0.422434918E+03'> </scales>
</event>
<event>
      5  10001  4.11707E+00  2.23764E+01  7.29735E-03  1.62444E-01
      21    -1     0     0   512   515  0.000000000E+00  0.000000000E+00  2.166334304E+03  2.166334304E+03  0.000000000E+00  0.00000E+00  9.000E+00
       2    -1     0     0   513     0  0.000000000E+00  0.000000000E+00 -1.472229545E+03  1.472229545E+03  0.000000000E+00  0.00000E+00  9.000E+00
       2     1     1     2   512     0 -1.412333299E+03 -9.729165734E+02  7.213894032E+02  1.860552250E+03  2.288818359E-05  0.00000E+00  9.000E+00
      21     1     1     2   513   515  1.445024337E+03  9.776786314E+02 -2.458473315E+01  1.744865396E+03  2.584615752E-05  0.00000E+00  9.000E+00
      22     1     1     2     0     0 -3.269103867E+01 -4.762057973E+00 -2.699910386E+00  3.314620222E+01  5.247240323E-07  0.00000E+00  9.000E+00
#rwgt            1         187   1.0077118893973126E-003        6024     3064143           0
<rwgt>
<wgt id='central'>  0.411707284E+01 </wgt>
<wgt id='sudakovwgt'>  0.180499581E+00 </wgt>
<wgt id='scales0.50.5'>  0.560249566E+01 </wgt>
<wgt id='scales0.51.0'>  0.477576531E+01 </wgt>
<wgt id='scales1.00.5'>  0.482977393E+01 </wgt>
<wgt id='scales1.02.0'>  0.354936474E+01 </wgt>
<wgt id='scales2.01.0'>  0.358698636E+01 </wgt>
<wgt id='scales2.02.0'>  0.309237466E+01 </wgt>
</rwgt>
<scales uborns=' 0.174820418E+04'> </scales>
</event>
<event>
      5  10001  3.78274E+04  1.82280E+00  7.29735E-03  3.82981E-01
      21    -1     0     0   514   513  0.000000000E+00  0.000000000E+00  3.634420946E+02  3.634420946E+02  0.000000000E+00  0.00000E+00  9.000E+00
      -3    -1     0     0     0   511  0.000000000E+00  0.000000000E+00 -4.899653700E+02  4.899653700E+02  0.000000000E+00  0.00000E+00  9.000E+00
      -3     1     1     2     0   513  2.754370818E+02 -2.181831210E+02 -1.749751497E+02  3.925375948E+02  6.877043296E-06  0.00000E+00  9.000E+00
      21     1     1     2   514   511 -2.742867433E+02  2.195970884E+02  1.334498782E+02  3.758523231E+02  3.303624740E-06  0.00000E+00  9.000E+00
      22     1     1     2     0     0 -1.150338523E+00 -1.413967371E+00 -8.499800389E+01  8.501754671E+01  9.536743164E-07  0.00000E+00  9.000E+00
#rwgt            1         198   5.9719215367508825E-004        6024     3065555           0
<rwgt>
<wgt id='central'>  0.378274313E+05 </wgt>
<wgt id='sudakovwgt'>  0.369478999E-01 </wgt>
<wgt id='scales0.50.5'>  0.475546859E+05 </wgt>
<wgt id='scales0.51.0'>  0.453209429E+05 </wgt>
<wgt id='scales1.00.5'>  0.396918071E+05 </wgt>
<wgt id='scales1.02.0'>  0.360069424E+05 </wgt>
<wgt id='scales2.01.0'>  0.320687225E+05 </wgt>
<wgt id='scales2.02.0'>  0.305254033E+05 </wgt>
</rwgt>
<scales uborns=' 0.351371525E+03'> </scales>
</event>
<event>
      4  10001  6.03669E+06  8.94427E-01  7.29735E-03  7.46891E-01
      -1    -1     0     0     0   512  0.000000000E+00  0.000000000E+00  9.222933555E+02  9.222933555E+02  0.000000000E+00  0.00000E+00  9.000E+00
      21    -1     0     0   515   511  0.000000000E+00  0.000000000E+00 -6.531394398E+01  6.531394398E+01  0.000000000E+00  0.00000E+00  9.000E+00
      -1     1     1     2     0   511 -2.206374357E+01 -1.487696706E+02  8.187215372E+02  8.324206744E+02  0.000000000E+00  0.00000E+00  9.000E+00
      21     1     1     2   515   512  2.206374357E+01  1.487696706E+02  3.825787428E+01  1.551866251E+02  2.384185791E-06  0.00000E+00  9.000E+00
#rwgt            1         191   1.1535767193409530E-003        6024     3065896           0
<rwgt>
<wgt id='central'>  0.603668890E+07 </wgt>
<wgt id='sudakovwgt'>  0.188806916E+01 </wgt>
<wgt id='scales0.50.5'>  0.763388097E+07 </wgt>
<wgt id='scales0.51.0'>  0.740655278E+07 </wgt>
<wgt id='scales1.00.5'>  0.622197320E+07 </wgt>
<wgt id='scales1.02.0'>  0.582624493E+07 </wgt>
<wgt id='scales2.01.0'>  0.501885148E+07 </wgt>
<wgt id='scales2.02.0'>  0.484388928E+07 </wgt>
</rwgt>
<scales uborns=' 0.150396887E+03'> </scales>
</event>
<event>
      5  10001  1.67547E+05  1.23294E+00  7.29735E-03  5.24192E-01
       1    -1     0     0   511     0  0.000000000E+00  0.000000000E+00  7.075760046E+02  7.075760046E+02  0.000000000E+00  0.00000E+00  9.000E+00
      21    -1     0     0   514   511  0.000000000E+00  0.000000000E+00 -2.073397616E+02  2.073397616E+02  0.000000000E+00  0.00000E+00  9.000E+00
       1     1     1     2   513     0 -2.500214504E+02 -1.101704826E+02  5.648116258E+02  6.274236475E+02  0.000000000E+00  0.00000E+00  9.000E+00
      21     1     1     2   514   513  2.508196992E+02  1.111101289E+02 -6.902169848E+01  2.828780251E+02  7.629394531E-06  0.00000E+00  9.000E+00
      22     1     1     2     0     0 -7.982487971E-01 -9.396462153E-01  4.446315678E+00  4.614093547E+00  8.429369702E-08  0.00000E+00  9.000E+00
#rwgt            1         181   3.3712638507523872E-003        6024     3066684           0
<rwgt>
<wgt id='central'>  0.167547493E+06 </wgt>
<wgt id='sudakovwgt'>  0.307199438E-01 </wgt>
<wgt id='scales0.50.5'>  0.213130377E+06 </wgt>
<wgt id='scales0.51.0'>  0.202022396E+06 </wgt>
<wgt id='scales1.00.5'>  0.176759389E+06 </wgt>
<wgt id='scales1.02.0'>  0.158824572E+06 </wgt>
<wgt id='scales2.01.0'>  0.141292081E+06 </wgt>
<wgt id='scales2.02.0'>  0.133936473E+06 </wgt>
</rwgt>
<scales uborns=' 0.273772868E+03'> </scales>
</event>
<event>
      4  10001  1.53332E+06  8.94427E-01  7.29735E-03  7.45431E-01
      -5    -1     0     0     0   512  0.000000000E+00  0.000000000E+00  1.359814667E+02  1.359814667E+02  0.000000000E+00  0.00000E+00  9.000E+00
      21    -1     0     0   513   511  0.000000000E+00  0.000000000E+00 -2.642800032E+02  2.642800032E+02  0.000000000E+00  0.00000E+00  9.000E+00
      -5     1     1     2     0   511 -1.883623082E+02  1.628582677E+01 -7.876208875E+01  2.048146819E+02  2.861022949E-06  0.00000E+00  9.000E+00
      21     1     1     2   513   512  1.883623082E+02 -1.628582677E+01 -4.953644777E+01  1.954467880E+02  3.090257978E-06  0.00000E+00  9.000E+00
#rwgt            1         195   2.1145472469741837E-004        6024     3067498           0
<rwgt>
<wgt id='central'>  0.153331543E+07 </wgt>
<wgt id='sudakovwgt'>  0.147268279E+01 </wgt>
<wgt id='scales0.50.5'>  0.171766707E+07 </wgt>
<wgt id='scales0.51.0'>  0.186809490E+07 </wgt>
<wgt id='scales1.00.5'>  0.140984982E+07 </wgt>
<wgt id='scales1.02.0'>  0.161763423E+07 </wgt>
<wgt id='scales2.01.0'>  0.128209013E+07 </wgt>
<wgt id='scales2.02.0'>  0.135258973E+07 </wgt>
</rwgt>
<scales uborns=' 0.189065035E+03'> </scales>
</event>
<event>
      4  10001  2.12389E+03  8.94427E-01  7.29735E-03  7.47223E-01
       3    -1     0     0   515     0  0.000000000E+00  0.000000000E+00  1.755934424E+03  1.755934424E+03  0.000000000E+00  0.00000E+00  9.000E+00
      21    -1     0     0   514   511  0.000000000E+00  0.000000000E+00 -5.362914047E+02  5.362914047E+02  0.000000000E+00  0.00000E+00  9.000E+00
       3     1     1     2   514     0  5.673875146E+02  6.747633551E+01  1.536192292E+03  1.639014462E+03  0.000000000E+00  0.00000E+00  9.000E+00
      21     1     1     2   515   511 -5.673875146E+02 -6.747633551E+01 -3.165492729E+02  6.532113668E+02  6.607249480E-06  0.00000E+00  9.000E+00
#rwgt            1         183   2.8981511072069446E-004        6024     3068366           0
<rwgt>
<wgt id='central'>  0.212389400E+04 </wgt>
<wgt id='sudakovwgt'>  0.192003163E+01 </wgt>
<wgt id='scales0.50.5'>  0.280793322E+04 </wgt>
<wgt id='scales0.51.0'>  0.251621916E+04 </wgt>
<wgt id='scales1.00.5'>  0.237011998E+04 </wgt>
<wgt id='scales1.02.0'>  0.191672377E+04 </wgt>
<wgt id='scales2.01.0'>  0.181753553E+04 </wgt>
<wgt id='scales2.02.0'>  0.164025141E+04 </wgt>
</rwgt>
<scales uborns=' 0.571385726E+03'> </scales>
</event>
<event>
      5  10001  4.29820E+00  9.29746E+02  7.29735E-03  9.17570E-02
       2    -1     0     0   511     0  0.000000000E+00  0.000000000E+00  2.824068477E+03  2.824068477E+03  0.000000000E+00  0.00000E+00  9.000E+00
       2    -1     0     0   512     0  0.000000000E+00  0.000000000E+00 -1.100000065E+03  1.100000065E+03  0.000000000E+00  0.00000E+00  9.000E+00
       2     1     1     2   512     0 -9.923494484E+02 -1.081139626E+03  1.030810732E+03  1.793374218E+03  2.642899792E-05  0.00000E+00  9.000E+00
      22     1     1     2     0     0  9.016079490E+02  7.238604503E+02 -1.917158630E+02  1.172017840E+03  1.982174844E-05  0.00000E+00  9.000E+00
       2     1     1     2   511     0  9.074149938E+01  3.572791761E+02  8.849735425E+02  9.586764837E+02  0.000000000E+00  0.00000E+00  9.000E+00
#rwgt            1          97   2.4003457548834998E-003        6024     3070536           0
<rwgt>
<wgt id='central'>  0.429819997E+01 </wgt>
<wgt id='sudakovwgt'>  0.545409532E-03 </wgt>
<wgt id='scales0.50.5'>  0.554863781E+01 </wgt>
<wgt id='scales0.51.0'>  0.498657596E+01 </wgt>
<wgt id='scales1.00.5'>  0.478267156E+01 </wgt>
<wgt id='scales1.02.0'>  0.388835299E+01 </wgt>
<wgt id='scales2.01.0'>  0.374434251E+01 </wgt>
<wgt id='scales2.02.0'>  0.338730757E+01 </wgt>
</rwgt>
<scales uborns=' 0.173334734E+04'> </scales>
</event>
<event>
      5  10001  2.11990E+01  3.73983E+02  7.29735E-03  1.02572E-01
       2    -1     0     0   512     0  0.000000000E+00  0.000000000E+00  2.244047433E+03  2.244047433E+03  0.000000000E+00  0.00000E+00  9.000E+00
       2    -1     0     0   511     0  0.000000000E+00  0.000000000E+00 -1.347897607E+03  1.347897607E+03  0.000000000E+00  0.00000E+00  9.000E+00
       2     1     1     2   511     0 -1.163766056E+03  2.905763591E+02  1.559505976E+03  1.967446300E+03  3.051757812E-05  0.00000E+00  9.000E+00
       2     1     1     2   512     0  1.220497679E+03 -4.430952508E+02 -4.929256556E+02  1.388856972E+03  4.825252777E-05  0.00000E+00  9.000E+00
      22     1     1     2     0     0 -5.673162283E+01  1.525188918E+02 -1.704304942E+02  2.356417678E+02  5.722045898E-06  0.00000E+00  9.000E+00
#rwgt            1          97   3.9495889366598386E-003        6024     3072349           0
<rwgt>
<wgt id='central'>  0.211990231E+02 </wgt>
<wgt id='sudakovwgt'>  0.100335623E-02 </wgt>
<wgt id='scales0.50.5'>  0.274020050E+02 </wgt>
<wgt id='scales0.51.0'>  0.247218895E+02 </wgt>
<wgt id='scales1.00.5'>  0.234971969E+02 </wgt>
<wgt id='scales1.02.0'>  0.192496704E+02 </wgt>
<wgt id='scales2.01.0'>  0.183854750E+02 </wgt>
<wgt id='scales2.02.0'>  0.166948599E+02 </wgt>
</rwgt>
<scales uborns=' 0.127990970E+04'> </scales>
</event>
<event>
      5  10001  1.34898E+03  3.29814E+02  7.29735E-03  1.04272E-01
      -1    -1     0     0     0   513  0.000000000E+00  0.000000000E+00  6.884340934E+02  6.884340934E+02  0.000000000E+00  0.00000E+00  9.000E+00
       1    -1     0     0   512     0  0.000000000E+00  0.000000000E+00 -6.983105547E+02  6.983105547E+02  0.000000000E+00  0.00000E+00  9.000E+00
      22     1     1     2     0     0  3.023357371E+02  1.240248627E+02 -3.431695246E+02  4.738716989E+02  0.000000000E+00  0.00000E+00  9.000E+00
      -2     1     1     2     0   513 -4.057298852E+02 -3.857649078E+02  2.818277918E+02  6.267840202E+02  1.265191952E-05  0.00000E+00  9.000E+00
       2     1     1     2   512     0  1.033941481E+02  2.617400451E+02  5.146527151E+01  2.860889289E+02  3.568322551E-06  0.00000E+00  9.000E+00
#rwgt            1          71   5.2813777540494501E-006        6024     3077715           0
<rwgt>
<wgt id='central'>  0.134897507E+04 </wgt>
<wgt id='sudakovwgt'>  0.101005008E-02 </wgt>
<wgt id='scales0.50.5'>  0.170360492E+04 </wgt>
<wgt id='scales0.51.0'>  0.159552374E+04 </wgt>
<wgt id='scales1.00.5'>  0.144036025E+04 </wgt>
<wgt id='scales1.02.0'>  0.126737150E+04 </wgt>
<wgt id='scales2.01.0'>  0.115600913E+04 </wgt>
<wgt id='scales2.02.0'>  0.108607469E+04 </wgt>
</rwgt>
<scales uborns=' 0.617318362E+03'> </scales>
</event>
<event>
      4  10001  1.58432E+06  8.94427E-01  7.29735E-03  7.51776E-01
       1    -1     0     0   511     0  0.000000000E+00  0.000000000E+00  2.225671324E+02  2.225671324E+02  0.000000000E+00  0.00000E+00  9.000E+00
      -1    -1     0     0     0   511  0.000000000E+00  0.000000000E+00 -7.070407151E+02  7.070407151E+02  0.000000000E+00  0.00000E+00  9.000E+00
       1     1     1     2   512     0 -4.147188996E+01  1.834040591E+02  1.670328548E+02  2.515093261E+02  3.303624740E-06  0.00000E+00  9.000E+00
      -1     1     1     2     0   512  4.147188996E+01 -1.834040591E+02 -6.515064375E+02  6.780985213E+02  7.629394531E-06  0.00000E+00  9.000E+00
#rwgt            1          41   8.0297862024247103E-005        6024     3077790           0
<rwgt>
<wgt id='central'>  0.158431760E+07 </wgt>
<wgt id='sudakovwgt'>  0.272795344E+01 </wgt>
<wgt id='scales0.50.5'>  0.200291813E+07 </wgt>
<wgt id='scales0.51.0'>  0.193054262E+07 </wgt>
<wgt id='scales1.00.5'>  0.164371572E+07 </wgt>
<wgt id='scales1.02.0'>  0.152621923E+07 </wgt>
<wgt id='scales2.01.0'>  0.132455884E+07 </wgt>
<wgt id='scales2.02.0'>  0.127598413E+07 </wgt>
</rwgt>
<scales uborns=' 0.188034482E+03'> </scales>
</event>
<event>
      5  10001  5.10378E+04  1.28982E+00  7.29735E-03  5.03292E-01
      -5    -1     0     0     0   513  0.000000000E+00  0.000000000E+00  8.101568538E+01  8.101568538E+01  0.000000000E+00  0.00000E+00  9.000E+00
       4    -1     0     0   513     0  0.000000000E+00  0.000000000E+00 -1.510387202E+03  1.510387202E+03  0.000000000E+00  0.00000E+00  9.000E+00
       4     1     1     2   511     0 -3.314542413E+02 -3.454776699E+01 -9.505329458E+02  1.007257834E+03  1.078959322E-05  0.00000E+00  9.000E+00
      -5     1     1     2     0   511  3.319877342E+02  3.429859245E+01 -4.786589195E+02  5.835294425E+02  1.078959322E-05  0.00000E+00  9.000E+00
      22     1     1     2     0     0 -5.334929276E-01  2.491745398E-01 -1.796513651E-01  6.156112962E-01  2.296423168E-08  0.00000E+00  9.000E+00
#rwgt            1         180   2.7791263717026416E-006        6024     3087975           0
<rwgt>
<wgt id='central'>  0.510377697E+05 </wgt>
<wgt id='sudakovwgt'>  0.599730002E-01 </wgt>
<wgt id='scales0.50.5'>  0.551516592E+05 </wgt>
<wgt id='scales0.51.0'>  0.612247372E+05 </wgt>
<wgt id='scales1.00.5'>  0.459751970E+05 </wgt>
<wgt id='scales1.02.0'>  0.550189633E+05 </wgt>
<wgt id='scales2.01.0'>  0.432231719E+05 </wgt>
<wgt id='scales2.02.0'>  0.465947614E+05 </wgt>
</rwgt>
<scales uborns=' 0.334138562E+03'> </scales>
</event>
<event>
      5  10001  1.94903E+02  9.04431E+01  7.29735E-03  1.25822E-01
       2    -1     0     0   511     0  0.000000000E+00  0.000000000E+00  3.380369068E+03  3.380369068E+03  0.000000000E+00  0.00000E+00  9.000E+00
       2    -1     0     0   512     0  0.000000000E+00  0.000000000E+00 -2.642862178E+03  2.642862178E+03  0.000000000E+00  0.00000E+00  9.000E+00
       2     1     1     2   512     0 -8.092377726E+02  1.379497965E+02  2.653708002E+03  2.777780063E+03  4.315837288E-05  0.00000E+00  9.000E+00
       2     1     1     2   511     0  8.836888601E+02 -1.893014868E+02  3.560902838E+02  9.713605637E+02  1.525878906E-05  0.00000E+00  9.000E+00
      22     1     1     2     0     0 -7.445108755E+01  5.135169028E+01 -2.272291395E+03  2.274090619E+03  3.051757812E-05  0.00000E+00  9.000E+00
#rwgt            1          97   1.0726160094282711E-003        6024     3088162           0
<rwgt>
<wgt id='central'>  0.194902628E+03 </wgt>
<wgt id='sudakovwgt'>  0.347996550E-01 </wgt>
<wgt id='scales0.50.5'>  0.252901655E+03 </wgt>
<wgt id='scales0.51.0'>  0.228968553E+03 </wgt>
<wgt id='scales1.00.5'>  0.215275375E+03 </wgt>
<wgt id='scales1.02.0'>  0.177578320E+03 </wgt>
<wgt id='scales2.01.0'>  0.167980981E+03 </wgt>
<wgt id='scales2.02.0'>  0.153049365E+03 </wgt>
</rwgt>
<scales uborns=' 0.861540877E+03'> </scales>
</event>
<event>
      5  10001  1.16072E+06  2.63134E+00  7.29735E-03  3.15290E-01
      21    -1     0     0   512   514  0.000000000E+00  0.000000000E+00  3.778624566E+02  3.778624566E+02  0.000000000E+00  0.00000E+00  9.000E+00
       2    -1     0     0   514     0  0.000000000E+00  0.000000000E+00 -3.459802417E+02  3.459802417E+02  0.000000000E+00  0.00000E+00  9.000E+00
       2     1     1     2   513     0  5.812079538E+01 -6.268425590E+01 -1.234146580E+02  1.501283471E+02  3.568322551E-06  0.00000E+00  9.000E+00
      21     1     1     2   512   513 -1.365452829E+02  1.434734365E+02  3.187262579E+02  3.752541389E+02  3.814697266E-06  0.00000E+00  9.000E+00
      22     1     1     2     0     0  7.842448757E+01 -8.078918058E+01 -1.634293851E+02  1.984602123E+02  3.814697266E-06  0.00000E+00  9.000E+00
#rwgt            1         187   3.3933670524705136E-003        6024     3102406           0
<rwgt>
<wgt id='central'>  0.116071626E+07 </wgt>
<wgt id='sudakovwgt'>  0.652227128E-01 </wgt>
<wgt id='scales0.50.5'>  0.148596056E+07 </wgt>
<wgt id='scales0.51.0'>  0.141221149E+07 </wgt>
<wgt id='scales1.00.5'>  0.122133558E+07 </wgt>
<wgt id='scales1.02.0'>  0.110356680E+07 </wgt>
<wgt id='scales2.01.0'>  0.971623887E+06 </wgt>
<wgt id='scales2.02.0'>  0.923781674E+06 </wgt>
</rwgt>
<scales uborns=' 0.198065714E+03'> </scales>
</event>
<event>
      5  10001  1.03862E+04  3.08133E+02  7.29735E-03  1.05216E-01
      -2    -1     0     0     0   511  0.000000000E+00  0.000000000E+00  1.947404104E+02  1.947404104E+02  0.000000000E+00  0.00000E+00  9.000E+00
       2    -1     0     0   511     0  0.000000000E+00  0.000000000E+00 -1.566854696E+03  1.566854696E+03  0.000000000E+00  0.00000E+00  9.000E+00
       2     1     1     2   512     0  1.295537720E+02 -3.120654366E+02 -9.479824802E+02  1.006399423E+03  1.078959322E-05  0.00000E+00  9.000E+00
      -2     1     1     2     0   512 -4.849397361E+01  2.857483656E+02  3.161091776E+01  2.915528152E+02  8.655612402E-06  0.00000E+00  9.000E+00
      22     1     1     2     0     0 -8.105979843E+01  2.631707095E+01 -4.557427237E+02  4.636428683E+02  0.000000000E+00  0.00000E+00  9.000E+00
#rwgt            1          72   6.4520837717815859E-004        6024     3104888           0
<rwgt>
<wgt id='central'>  0.103862068E+05 </wgt>
<wgt id='sudakovwgt'>  0.174889559E-04 </wgt>
<wgt id='scales0.50.5'>  0.129473934E+05 </wgt>
<wgt id='scales0.51.0'>  0.123790736E+05 </wgt>
<wgt id='scales1.00.5'>  0.108630276E+05 </wgt>
<wgt id='scales1.02.0'>  0.993752797E+04 </wgt>
<wgt id='scales2.01.0'>  0.884332680E+04 </wgt>
<wgt id='scales2.02.0'>  0.846130513E+04 </wgt>
</rwgt>
<scales uborns=' 0.436746242E+03'> </scales>
</event>
<event>
      5  10001  1.11756E+04  1.34061E+01  7.29735E-03  1.82106E-01
      21    -1     0     0   512   511  0.000000000E+00  0.000000000E+00  6.419983923E+02  6.419983923E+02  0.000000000E+00  0.00000E+00  9.000E+00
       2    -1     0     0   511     0  0.000000000E+00  0.000000000E+00 -1.857809976E+03  1.857809976E+03  0.000000000E+00  0.00000E+00  9.000E+00
       2     1     1     2   513     0  3.741793845E+02 -2.127759169E+02 -1.522230553E+03  1.581919612E+03  0.000000000E+00  0.00000E+00  9.000E+00
      21     1     1     2   512   513 -3.691540984E+02  2.252045426E+02  5.355671499E+02  6.883487534E+02  7.629394531E-06  0.00000E+00  9.000E+00
      22     1     1     2     0     0 -5.025286122E+00 -1.242862568E+01 -2.291481804E+02  2.295400026E+02  2.697398305E-06  0.00000E+00  9.000E+00
#rwgt            1         187   1.7318355902589646E-002        6024     3108487           0
<rwgt>
<wgt id='central'>  0.111755605E+05 </wgt>
<wgt id='sudakovwgt'>  0.660713372E-01 </wgt>
<wgt id='scales0.50.5'>  0.150235152E+05 </wgt>
<wgt id='scales0.51.0'>  0.133237698E+05 </wgt>
<wgt id='scales1.00.5'>  0.126012982E+05 </wgt>
<wgt id='scales1.02.0'>  0.998991335E+04 </wgt>
<wgt id='scales2.01.0'>  0.951317705E+04 </wgt>
<wgt id='scales2.02.0'>  0.850386686E+04 </wgt>
</rwgt>
<scales uborns=' 0.431384646E+03'> </scales>
</event>
<event>
      5  10001  4.59187E+04  6.73518E+00  7.29735E-03  2.17948E-01
      21    -1     0     0   513   511  0.000000000E+00  0.000000000E+00  9.768811169E+02  9.768811169E+02  0.000000000E+00  0.00000E+00  9.000E+00
      -4    -1     0     0     0   514  0.000000000E+00  0.000000000E+00 -2.018854183E+02  2.018854183E+02  0.000000000E+00  0.00000E+00  9.000E+00
      -4     1     1     2     0   511  2.418755129E+02  2.392287574E+02  2.084490522E+01  3.408352567E+02  1.085786585E-05  0.00000E+00  9.000E+00
      21     1     1     2   513   514 -2.464753246E+02 -2.343089567E+02  7.575542695E+02  8.303849975E+02  1.078959322E-05  0.00000E+00  9.000E+00
      22     1     1     2     0     0  4.599811678E+00 -4.919800656E+00 -3.403476224E+00  7.546280963E+00  9.424321831E-08  0.00000E+00  9.000E+00
#rwgt            1         199   3.2484198163171914E-004        6024     3110025           0
<rwgt>
<wgt id='central'>  0.459187266E+05 </wgt>
<wgt id='sudakovwgt'>  0.431889684E-01 </wgt>
<wgt id='scales0.50.5'>  0.574368676E+05 </wgt>
<wgt id='scales0.51.0'>  0.550595038E+05 </wgt>
<wgt id='scales1.00.5'>  0.479013814E+05 </wgt>
<wgt id='scales1.02.0'>  0.438292530E+05 </wgt>
<wgt id='scales2.01.0'>  0.389021723E+05 </wgt>
<wgt id='scales2.02.0'>  0.371319997E+05 </wgt>
</rwgt>
<scales uborns=' 0.340119280E+03'> </scales>
</event>
<event>
      5  10001  5.83990E+08  1.53989E+00  7.29735E-03  4.25969E-01
       1    -1     0     0   513     0  0.000000000E+00  0.000000000E+00  1.900234707E+03  1.900234707E+03  0.000000000E+00  0.00000E+00  9.000E+00
      21    -1     0     0   515   513  0.000000000E+00  0.000000000E+00 -3.992193853E+00  3.992193853E+00  0.000000000E+00  0.00000E+00  9.000E+00
       1     1     1     2   512     0  1.214602524E+01 -6.950479362E+01  1.309444279E+03  1.311343877E+03  3.737624730E-05  0.00000E+00  9.000E+00
      21     1     1     2   515   512 -1.329763464E+01  6.848251646E+01  3.972777942E+02  4.033563287E+02  1.078959322E-05  0.00000E+00  9.000E+00
      22     1     1     2     0     0  1.151609396E+00  1.022277158E+00  1.895204402E+02  1.895266961E+02  0.000000000E+00  0.00000E+00  9.000E+00
#rwgt            1         181   2.4093430775475121E-002        6024     3110546           0
<rwgt>
<wgt id='central'>  0.583990219E+09 </wgt>
<wgt id='sudakovwgt'>  0.308256376E-01 </wgt>
<wgt id='scales0.50.5'>  0.683667855E+09 </wgt>
<wgt id='scales0.51.0'>  0.736630362E+09 </wgt>
<wgt id='scales1.00.5'>  0.542002083E+09 </wgt>
<wgt id='scales1.02.0'>  0.613373590E+09 </wgt>
<wgt id='scales2.01.0'>  0.474916929E+09 </wgt>
<wgt id='scales2.02.0'>  0.498812483E+09 </wgt>
</rwgt>
<scales uborns=' 0.701559335E+02'> </scales>
</event>
<event>
      5  10001  1.80778E+04  4.54073E+00  7.29735E-03  2.51135E-01
       2    -1     0     0   513     0  0.000000000E+00  0.000000000E+00  3.192894791E+03  3.192894791E+03  0.000000000E+00  0.00000E+00  9.000E+00
      21    -1     0     0   512   513  0.000000000E+00  0.000000000E+00 -1.063373875E+02  1.063373875E+02  0.000000000E+00  0.00000E+00  9.000E+00
      22     1     1     2     0     0  1.005282899E+02  1.576905764E+02  1.277366470E+03  1.290983096E+03  2.157918644E-05  0.00000E+00  9.000E+00
      21     1     1     2   512   511 -2.136612620E+02 -3.355580692E+02  3.379330137E+02  5.219665453E+02  7.629394531E-06  0.00000E+00  9.000E+00
       2     1     1     2   511     0  1.131329720E+02  1.778674927E+02  1.471257919E+03  1.486282537E+03  3.737624730E-05  0.00000E+00  9.000E+00
#rwgt            1         182   5.4430954971218082E-002        6024     3111096           0
<rwgt>
<wgt id='central'>  0.180778204E+05 </wgt>
<wgt id='sudakovwgt'>  0.933138486E-01 </wgt>
<wgt id='scales0.50.5'>  0.238366233E+05 </wgt>
<wgt id='scales0.51.0'>  0.215938968E+05 </wgt>
<wgt id='scales1.00.5'>  0.199553473E+05 </wgt>
<wgt id='scales1.02.0'>  0.164415745E+05 </wgt>
<wgt id='scales2.01.0'>  0.153641467E+05 </wgt>
<wgt id='scales2.02.0'>  0.139735345E+05 </wgt>
</rwgt>
<scales uborns=' 0.397812204E+03'> </scales>
</event>
<event>
      5  10001  6.95893E+04  2.25463E+00  7.29735E-03  3.40410E-01
       2    -1     0     0   513     0  0.000000000E+00  0.000000000E+00  2.825882048E+03  2.825882048E+03  0.000000000E+00  0.00000E+00  9.000E+00
       1    -1     0     0   511     0  0.000000000E+00  0.000000000E+00 -3.641204597E+01  3.641204597E+01  0.000000000E+00  0.00000E+00  9.000E+00
       2     1     1     2   511     0 -2.010753205E+02  7.167379365E+01  1.074358415E+03  1.095360407E+03  1.525878906E-05  0.00000E+00  9.000E+00
       1     1     1     2   513     0  2.989567227E+02 -1.060044561E+02  1.181717058E+03  1.223547004E+03  1.525878906E-05  0.00000E+00  9.000E+00
      22     1     1     2     0     0 -9.788140219E+01  3.433066245E+01  5.333945287E+02  5.433866823E+02  7.629394531E-06  0.00000E+00  9.000E+00
#rwgt            1          92   1.3487343698134571E-003        6024     3117935           0
<rwgt>
<wgt id='central'>  0.695893347E+05 </wgt>
<wgt id='sudakovwgt'>  0.441207807E+00 </wgt>
<wgt id='scales0.50.5'>  0.872388382E+05 </wgt>
<wgt id='scales0.51.0'>  0.835885564E+05 </wgt>
<wgt id='scales1.00.5'>  0.726282394E+05 </wgt>
<wgt id='scales1.02.0'>  0.666673172E+05 </wgt>
<wgt id='scales2.01.0'>  0.588701369E+05 </wgt>
<wgt id='scales2.02.0'>  0.563982407E+05 </wgt>
</rwgt>
<scales uborns=' 0.317202089E+03'> </scales>
</event>
<event>
      4  10001  2.23347E+01  8.94427E-01  7.29735E-03  7.37988E-01
       1    -1     0     0   511     0  0.000000000E+00  0.000000000E+00  1.397234682E+03  1.397234682E+03  0.000000000E+00  0.00000E+00  9.000E+00
      21    -1     0     0   512   514  0.000000000E+00  0.000000000E+00 -2.256106632E+03  2.256106632E+03  0.000000000E+00  0.00000E+00  9.000E+00
       1     1     1     2   512     0  9.323152564E+02 -8.589939246E+02  8.494801586E+02  1.526007484E+03  2.412626389E-05  0.00000E+00  9.000E+00
      21     1     1     2   511   514 -9.323152564E+02  8.589939246E+02 -1.708352109E+03  2.127333831E+03  3.737624730E-05  0.00000E+00  9.000E+00
#rwgt            1         181   1.2056071300150936E-003        6024     3157129           0
<rwgt>
<wgt id='central'>  0.223346511E+02 </wgt>
<wgt id='sudakovwgt'>  0.218028394E+01 </wgt>
<wgt id='scales0.50.5'>  0.311233355E+02 </wgt>
<wgt id='scales0.51.0'>  0.260507431E+02 </wgt>
<wgt id='scales1.00.5'>  0.266837057E+02 </wgt>
<wgt id='scales1.02.0'>  0.189390419E+02 </wgt>
<wgt id='scales2.01.0'>  0.193676348E+02 </wgt>
<wgt id='scales2.02.0'>  0.164230748E+02 </wgt>
</rwgt>
<scales uborns=' 0.126770750E+04'> </scales>
</event>
<event>
      5  10001  3.27048E+01  1.86391E+01  7.29735E-03  1.68934E-01
       2    -1     0     0   513     0  0.000000000E+00  0.000000000E+00  3.314156818E+03  3.314156818E+03  0.000000000E+00  0.00000E+00  9.000E+00
       2    -1     0     0   512     0  0.000000000E+00  0.000000000E+00 -1.399348344E+03  1.399348344E+03  0.000000000E+00  0.00000E+00  9.000E+00
       2     1     1     2   513     0 -9.437003912E+02  7.222017083E+02 -1.003628507E+03  1.555447176E+03  2.412626389E-05  0.00000E+00  9.000E+00
       2     1     1     2   512     0  9.256283559E+02 -7.267642323E+02  2.786680519E+03  3.024989655E+03  0.000000000E+00  0.00000E+00  9.000E+00
      22     1     1     2     0     0  1.807203531E+01  4.562524046E+00  1.317564627E+02  1.330683304E+02  2.697398305E-06  0.00000E+00  9.000E+00
#rwgt            1          97   6.4992599755934362E-003        6024     3158400           0
<rwgt>
<wgt id='central'>  0.327047862E+02 </wgt>
<wgt id='sudakovwgt'>  0.190434604E+00 </wgt>
<wgt id='scales0.50.5'>  0.434016893E+02 </wgt>
<wgt id='scales0.51.0'>  0.381936758E+02 </wgt>
<wgt id='scales1.00.5'>  0.371643614E+02 </wgt>
<wgt id='scales1.02.0'>  0.290254825E+02 </wgt>
<wgt id='scales2.01.0'>  0.283300055E+02 </wgt>
<wgt id='scales2.02.0'>  0.251428561E+02 </wgt>
</rwgt>
<scales uborns=' 0.118256615E+04'> </scales>
</event>
<event>
      5  10001  4.60554E+03  4.98422E+01  7.29735E-03  1.39154E-01
      -2    -1     0     0     0   511  0.000000000E+00  0.000000000E+00  1.089727206E+02  1.089727206E+02  0.000000000E+00  0.00000E+00  9.000E+00
       1    -1     0     0   511     0  0.000000000E+00  0.000000000E+00 -3.519281451E+03  3.519281451E+03  0.000000000E+00  0.00000E+00  9.000E+00
       1     1     1     2   512     0 -2.981375201E+02  4.307928534E+02 -2.110334871E+03  2.174392267E+03  5.285799584E-05  0.00000E+00  9.000E+00
      -2     1     1     2     0   512  2.903077818E+02 -3.815694828E+02 -1.316710061E+03  1.401284862E+03  1.525878906E-05  0.00000E+00  9.000E+00
      22     1     1     2     0     0  7.829738319E+00 -4.922337055E+01  1.673620162E+01  5.257704305E+01  1.369610464E-06  0.00000E+00  9.000E+00
#rwgt            1         165   1.4998844206634828E-004        6024     3208260           0
<rwgt>
<wgt id='central'>  0.460553699E+04 </wgt>
<wgt id='sudakovwgt'>  0.296281713E-01 </wgt>
<wgt id='scales0.50.5'>  0.603881488E+04 </wgt>
<wgt id='scales0.51.0'>  0.547206829E+04 </wgt>
<wgt id='scales1.00.5'>  0.508253955E+04 </wgt>
<wgt id='scales1.02.0'>  0.419494125E+04 </wgt>
<wgt id='scales2.01.0'>  0.393168009E+04 </wgt>
<wgt id='scales2.02.0'>  0.358115812E+04 </wgt>
</rwgt>
<scales uborns=' 0.501071296E+03'> </scales>
</event>
<event>
      5  10001  3.65368E+01  1.56098E+02  7.29735E-03  1.15712E-01
       2    -1     0     0   512     0  0.000000000E+00  0.000000000E+00  2.302434558E+03  2.302434558E+03  0.000000000E+00  0.00000E+00  9.000E+00
      21    -1     0     0   513   514  0.000000000E+00  0.000000000E+00 -8.568526236E+02  8.568526236E+02  0.000000000E+00  0.00000E+00  9.000E+00
       2     1     1     2   513     0  1.021790995E+03  4.326991930E+02  7.518821330E+02  1.340377622E+03  2.157918644E-05  0.00000E+00  9.000E+00
      21     1     1     2   512   514 -1.064535482E+03 -5.828312198E+02  1.144863011E+02  1.219030409E+03  4.258558953E-05  0.00000E+00  9.000E+00
      22     1     1     2     0     0  4.274448761E+01  1.501320268E+02  5.792135001E+02  5.998791506E+02  7.629394531E-06  0.00000E+00  9.000E+00
#rwgt            1         182   6.4940232166173159E-003        6024     3219581           0
<rwgt>
<wgt id='central'>  0.365367739E+02 </wgt>
<wgt id='sudakovwgt'>  0.297039438E-01 </wgt>
<wgt id='scales0.50.5'>  0.481792327E+02 </wgt>
<wgt id='scales0.51.0'>  0.426842681E+02 </wgt>
<wgt id='scales1.00.5'>  0.412403695E+02 </wgt>
<wgt id='scales1.02.0'>  0.326230033E+02 </wgt>
<wgt id='scales2.01.0'>  0.316396257E+02 </wgt>
<wgt id='scales2.02.0'>  0.282504109E+02 </wgt>
</rwgt>
<scales uborns=' 0.115909369E+04'> </scales>
</event>
<event>
      5  10001  1.45070E+05  1.35961E+01  7.29735E-03  1.81500E-01
       2    -1     0     0   513     0  0.000000000E+00  0.000000000E+00  1.881248358E+02  1.881248358E+02  0.000000000E+00  0.00000E+00  9.000E+00
      21    -1     0     0   511   515  0.000000000E+00  0.000000000E+00 -1.336105708E+03  1.336105708E+03  0.000000000E+00  0.00000E+00  9.000E+00
       2     1     1     2   511     0  6.905570923E+01  2.038939305E+02  3.398618521E+01  2.179368868E+02  7.136645101E-06  0.00000E+00  9.000E+00
      21     1     1     2   513   515 -9.142635210E+01 -2.649833161E+02 -1.205080944E+03  1.237253013E+03  0.000000000E+00  0.00000E+00  9.000E+00
      22     1     1     2     0     0  2.237064287E+01  6.108938568E+01  2.311388716E+01  6.904064372E+01  1.390207266E-06  0.00000E+00  9.000E+00
#rwgt            1         182   9.1339604169032960E-004        6024     3220602           0
<rwgt>
<wgt id='central'>  0.145070303E+06 </wgt>
<wgt id='sudakovwgt'>  0.916808624E-03 </wgt>
<wgt id='scales0.50.5'>  0.192557126E+06 </wgt>
<wgt id='scales0.51.0'>  0.174809040E+06 </wgt>
<wgt id='scales1.00.5'>  0.159798729E+06 </wgt>
<wgt id='scales1.02.0'>  0.132491135E+06 </wgt>
<wgt id='scales2.01.0'>  0.122401599E+06 </wgt>
<wgt id='scales2.02.0'>  0.111788287E+06 </wgt>
</rwgt>
<scales uborns=' 0.280457472E+03'> </scales>
</event>
<event>
      4  10001  5.24205E+03  8.94427E-01  7.29735E-03  7.35239E-01
      21    -1     0     0   512   514  0.000000000E+00  0.000000000E+00  6.307461010E+02  6.307461010E+02  0.000000000E+00  0.00000E+00  9.000E+00
      21    -1     0     0   514   513  0.000000000E+00  0.000000000E+00 -4.996605183E+02  4.996605183E+02  0.000000000E+00  0.00000E+00  9.000E+00
       3     1     1     2   512     0  4.064480121E+02 -2.740612942E+02  3.409871563E+02  5.971447230E+02  6.607249480E-06  0.00000E+00  9.000E+00
      -3     1     1     2     0   513 -4.064480121E+02  2.740612942E+02 -2.099015736E+02  5.332618963E+02  6.031565972E-06  0.00000E+00  9.000E+00
#rwgt            1         203   7.3047103637377374E-005        6024     3223635           0
<rwgt>
<wgt id='central'>  0.524204814E+04 </wgt>
<wgt id='sudakovwgt'>  0.258624557E+01 </wgt>
<wgt id='scales0.50.5'>  0.705035951E+04 </wgt>
<wgt id='scales0.51.0'>  0.623140071E+04 </wgt>
<wgt id='scales1.00.5'>  0.593098386E+04 </wgt>
<wgt id='scales1.02.0'>  0.466754176E+04 </wgt>
<wgt id='scales2.01.0'>  0.447321511E+04 </wgt>
<wgt id='scales2.02.0'>  0.398296818E+04 </wgt>
</rwgt>
<scales uborns=' 0.490213810E+03'> </scales>
</event>
<event>
      5  10001  6.45074E+02  1.39715E+01  7.29735E-03  1.80340E-01
      21    -1     0     0   511   514  0.000000000E+00  0.000000000E+00  3.024691115E+02  3.024691115E+02  0.000000000E+00  0.00000E+00  9.000E+00
       2    -1     0     0   512     0  0.000000000E+00  0.000000000E+00 -1.821049118E+03  1.821049118E+03  0.000000000E+00  0.00000E+00  9.000E+00
       2     1     1     2   511     0  6.492238427E+02  2.720538070E+02 -5.145176324E+02  8.719135656E+02  1.321449896E-05  0.00000E+00  9.000E+00
      21     1     1     2   512   514 -6.380604845E+02 -2.804550828E+02 -8.604614447E+02  1.107325667E+03  2.157918644E-05  0.00000E+00  9.000E+00
      22     1     1     2     0     0 -1.116335820E+01  8.401275760E+00 -1.436009290E+02  1.442789965E+02  1.907348633E-06  0.00000E+00  9.000E+00
#rwgt            1         187   4.6599104694573183E-003        6024     3224664           0
<rwgt>
<wgt id='central'>  0.645073820E+03 </wgt>
<wgt id='sudakovwgt'>  0.660060606E-01 </wgt>
<wgt id='scales0.50.5'>  0.832623811E+03 </wgt>
<wgt id='scales0.51.0'>  0.760963678E+03 </wgt>
<wgt id='scales1.00.5'>  0.705820774E+03 </wgt>
<wgt id='scales1.02.0'>  0.592223753E+03 </wgt>
<wgt id='scales2.01.0'>  0.554025522E+03 </wgt>
<wgt id='scales2.02.0'>  0.508634783E+03 </wgt>
</rwgt>
<scales uborns=' 0.700414219E+03'> </scales>
</event>
<event>
      4  10001  8.62572E+08  8.94427E-01  7.29735E-03  7.52107E-01
      21    -1     0     0   515   512  0.000000000E+00  0.000000000E+00  4.260380483E+02  4.260380483E+02  0.000000000E+00  0.00000E+00  9.000E+00
      -2    -1     0     0     0   513  0.000000000E+00  0.000000000E+00 -1.291832957E+01  1.291832957E+01  0.000000000E+00  0.00000E+00  9.000E+00
      -2     1     1     2     0   512  4.313140196E+00 -6.559759116E+01  1.048454627E+02  1.237506290E+02  2.697398305E-06  0.00000E+00  9.000E+00
      21     1     1     2   515   513 -4.313140196E+00  6.559759116E+01  3.082742561E+02  3.152057489E+02  0.000000000E+00  0.00000E+00  9.000E+00
#rwgt            1         197   6.4325027314354256E-004        6024     3225828           0
<rwgt>
<wgt id='central'>  0.862571776E+09 </wgt>
<wgt id='sudakovwgt'>  0.488013539E+01 </wgt>
<wgt id='scales0.50.5'>  0.103376860E+10 </wgt>
<wgt id='scales0.51.0'>  0.109099925E+10 </wgt>
<wgt id='scales1.00.5'>  0.817323981E+09 </wgt>
<wgt id='scales1.02.0'>  0.894949977E+09 </wgt>
<wgt id='scales2.01.0'>  0.699968105E+09 </wgt>
<wgt id='scales2.02.0'>  0.726242493E+09 </wgt>
</rwgt>
<scales uborns=' 0.657392360E+02'> </scales>
</event>
<event>
      5  10001  1.72671E+03  2.61700E+01  7.29735E-03  1.57277E-01
       2    -1     0     0   513     0  0.000000000E+00  0.000000000E+00  1.814858025E+03  1.814858025E+03  0.000000000E+00  0.00000E+00  9.000E+00
      21    -1     0     0   511   514  0.000000000E+00  0.000000000E+00 -2.633145193E+02  2.633145193E+02  0.000000000E+00  0.00000E+00  9.000E+00
       2     1     1     2   511     0 -3.120102917E+02 -4.943575780E+02  1.254521264E+03  1.384038814E+03  1.525878906E-05  0.00000E+00  9.000E+00
      21     1     1     2   513   514  3.012233021E+02  5.029417399E+02  2.366536026E+02  6.322110400E+02  1.789251617E-05  0.00000E+00  9.000E+00
      22     1     1     2     0     0  1.078698964E+01 -8.584161919E+00  6.036863907E+01  6.192269022E+01  6.743495762E-07  0.00000E+00  9.000E+00
#rwgt            1         182   1.1967808383258165E-002        6024     3230400           0
<rwgt>
<wgt id='central'>  0.172670800E+04 </wgt>
<wgt id='sudakovwgt'>  0.824717681E-01 </wgt>
<wgt id='scales0.50.5'>  0.223652033E+04 </wgt>
<wgt id='scales0.51.0'>  0.204412074E+04 </wgt>
<wgt id='scales1.00.5'>  0.188923381E+04 </wgt>
<wgt id='scales1.02.0'>  0.158508800E+04 </wgt>
<wgt id='scales2.01.0'>  0.147858846E+04 </wgt>
<wgt id='scales2.02.0'>  0.135731700E+04 </wgt>
</rwgt>
<scales uborns=' 0.591877534E+03'> </scales>
</event>
<event>
      5  10001  2.27681E+02  1.29636E+02  7.29735E-03  1.18961E-01
      21    -1     0     0   512   511  0.000000000E+00  0.000000000E+00  4.211456740E+02  4.211456740E+02  0.000000000E+00  0.00000E+00  9.000E+00
       1    -1     0     0   515     0  0.000000000E+00  0.000000000E+00 -1.880550367E+03  1.880550367E+03  0.000000000E+00  0.00000E+00  9.000E+00
      22     1     1     2     0     0 -1.480767824E+02  5.000744686E+01 -6.744296908E+01  1.702234775E+02  3.693564745E-06  0.00000E+00  9.000E+00
      21     1     1     2   515   511  8.250614206E+02 -1.438960090E+02 -1.113851088E+03  1.393591280E+03  1.525878906E-05  0.00000E+00  9.000E+00
       1     1     1     2   512     0 -6.769846383E+02  9.388856213E+01 -2.781106356E+02  7.378812832E+02  1.321449896E-05  0.00000E+00  9.000E+00
#rwgt            1         186   1.0061855276774993E-003        6024     3233100           0
<rwgt>
<wgt id='central'>  0.227681375E+03 </wgt>
<wgt id='sudakovwgt'>  0.243313055E-01 </wgt>
<wgt id='scales0.50.5'>  0.301141332E+03 </wgt>
<wgt id='scales0.51.0'>  0.267617103E+03 </wgt>
<wgt id='scales1.00.5'>  0.256202458E+03 </wgt>
<wgt id='scales1.02.0'>  0.203776585E+03 </wgt>
<wgt id='scales2.01.0'>  0.196143311E+03 </wgt>
<wgt id='scales2.02.0'>  0.175550063E+03 </wgt>
</rwgt>
<scales uborns=' 0.838525295E+03'> </scales>
</event>
<event>
      5  10001  1.06270E+04  3.16297E+00  7.29735E-03  2.90066E-01
       2    -1     0     0   514     0  0.000000000E+00  0.000000000E+00  2.689914063E+03  2.689914063E+03  0.000000000E+00  0.00000E+00  9.000E+00
      21    -1     0     0   513   514  0.000000000E+00  0.000000000E+00 -2.041933190E+02  2.041933190E+02  0.000000000E+00  0.00000E+00  9.000E+00
      22     1     1     2     0     0  7.099759898E+01  1.618337799E+02  9.746240364E+02  9.905164530E+02  1.078959322E-05  0.00000E+00  9.000E+00
      21     1     1     2   513   512 -1.732359858E+02 -3.990818139E+02  7.137587303E+01  4.408758512E+02  1.607160525E-05  0.00000E+00  9.000E+00
       2     1     1     2   512     0  1.022383868E+02  2.372480340E+02  1.439720835E+03  1.462715078E+03  2.642899792E-05  0.00000E+00  9.000E+00
#rwgt            1         182   1.4936167344947533E-002        6024     3233300           0
<rwgt>
<wgt id='central'>  0.106270375E+05 </wgt>
<wgt id='sudakovwgt'>  0.447831655E-02 </wgt>
<wgt id='scales0.50.5'>  0.141067046E+05 </wgt>
<wgt id='scales0.51.0'>  0.126672155E+05 </wgt>
<wgt id='scales1.00.5'>  0.118346411E+05 </wgt>
<wgt id='scales1.02.0'>  0.959630308E+04 </wgt>
<wgt id='scales2.01.0'>  0.904767677E+04 </wgt>
<wgt id='scales2.02.0'>  0.817015607E+04 </wgt>
</rwgt>
<scales uborns=' 0.435061111E+03'> </scales>
</event>
<event>
      5  10001  7.05249E+05  2.39689E+01  7.29735E-03  1.60133E-01
       2    -1     0     0   514     0  0.000000000E+00  0.000000000E+00  2.754709464E+03  2.754709464E+03  0.000000000E+00  0.00000E+00  9.000E+00
      21    -1     0     0   512   514  0.000000000E+00  0.000000000E+00 -1.741998842E+01  1.741998842E+01  0.000000000E+00  0.00000E+00  9.000E+00
       2     1     1     2   511     0  8.281213627E+01 -1.771034701E+02  1.119198877E+03  1.136146828E+03  1.525878906E-05  0.00000E+00  9.000E+00
      21     1     1     2   512   511 -8.725705895E+01  1.917452406E+02  1.590855795E+03  1.604743653E+03  2.157918644E-05  0.00000E+00  9.000E+00
      22     1     1     2     0     0  4.444922686E+00 -1.464177057E+01  2.723480285E+01  3.123897036E+01  1.118282261E-06  0.00000E+00  9.000E+00
#rwgt            1         182   2.6269174735268110E-002        6024     3241688           0
<rwgt>
<wgt id='central'>  0.705249413E+06 </wgt>
<wgt id='sudakovwgt'>  0.728624839E-01 </wgt>
<wgt id='scales0.50.5'>  0.878687688E+06 </wgt>
<wgt id='scales0.51.0'>  0.855997549E+06 </wgt>
<wgt id='scales1.00.5'>  0.723943210E+06 </wgt>
<wgt id='scales1.02.0'>  0.683145159E+06 </wgt>
<wgt id='scales2.01.0'>  0.591515374E+06 </wgt>
<wgt id='scales2.02.0'>  0.572976161E+06 </wgt>
</rwgt>
<scales uborns=' 0.215263008E+03'> </scales>
</event>
<event>
      4  10001  2.54230E+01  8.94427E-01  7.29735E-03  7.47753E-01
      21    -1     0     0   511   512  0.000000000E+00  0.000000000E+00  9.416506558E+02  9.416506558E+02  0.000000000E+00  0.00000E+00  9.000E+00
       1    -1     0     0   512     0  0.000000000E+00  0.000000000E+00 -1.703088733E+03  1.703088733E+03  0.000000000E+00  0.00000E+00  9.000E+00
       1     1     1     2   513     0  8.141904155E+02  9.326130113E+02 -6.590397926E+02  1.402500093E+03  7.629394531E-06  0.00000E+00  9.000E+00
      21     1     1     2   511   513 -8.141904155E+02 -9.326130113E+02 -1.023982850E+02  1.242239297E+03  2.212031079E-05  0.00000E+00  9.000E+00
#rwgt            1         186   2.6235565748465020E-003        6024     3243464           0
<rwgt>
<wgt id='central'>  0.254230221E+02 </wgt>
<wgt id='sudakovwgt'>  0.293405324E+01 </wgt>
<wgt id='scales0.50.5'>  0.339846349E+02 </wgt>
<wgt id='scales0.51.0'>  0.296653782E+02 </wgt>
<wgt id='scales1.00.5'>  0.291245696E+02 </wgt>
<wgt id='scales1.02.0'>  0.223900370E+02 </wgt>
<wgt id='scales2.01.0'>  0.220377255E+02 </wgt>
<wgt id='scales2.02.0'>  0.194086256E+02 </wgt>
</rwgt>
<scales uborns=' 0.123801174E+04'> </scales>
</event>
<event>
      5  10001  1.11519E+03  2.53636E+00  7.29735E-03  3.20902E-01
      21    -1     0     0   514   512  0.000000000E+00  0.000000000E+00  1.534180636E+02  1.534180636E+02  0.000000000E+00  0.00000E+00  9.000E+00
       1    -1     0     0   513     0  0.000000000E+00  0.000000000E+00 -3.029933154E+03  3.029933154E+03  0.000000000E+00  0.00000E+00  9.000E+00
      22     1     1     2     0     0  1.983502562E+02 -1.458086698E+01 -6.255653567E+02  6.564201713E+02  1.078959322E-05  0.00000E+00  9.000E+00
      21     1     1     2   513   512 -6.358343656E+02  4.888211585E+01 -8.752011845E+02  1.082890537E+03  2.412626389E-05  0.00000E+00  9.000E+00
       1     1     1     2   514     0  4.374841094E+02 -3.430124887E+01 -1.375748549E+03  1.444040509E+03  1.525878906E-05  0.00000E+00  9.000E+00
#rwgt            1         186   3.7585528713204954E-003        6024     3245258           0
<rwgt>
<wgt id='central'>  0.111518591E+04 </wgt>
<wgt id='sudakovwgt'>  0.365367412E-01 </wgt>
<wgt id='scales0.50.5'>  0.149426379E+04 </wgt>
<wgt id='scales0.51.0'>  0.131810136E+04 </wgt>
<wgt id='scales1.00.5'>  0.126423361E+04 </wgt>
<wgt id='scales1.02.0'>  0.990316717E+03 </wgt>
<wgt id='scales2.01.0'>  0.956215065E+03 </wgt>
<wgt id='scales2.02.0'>  0.849142984E+03 </wgt>
</rwgt>
<scales uborns=' 0.637711595E+03'> </scales>
</event>
<event>
      5  10001  5.58702E+06  1.51233E+02  7.29735E-03  1.16253E-01
      -3    -1     0     0     0   511  0.000000000E+00  0.000000000E+00  1.634795536E+02  1.634795536E+02  0.000000000E+00  0.00000E+00  9.000E+00
      21    -1     0     0   512   514  0.000000000E+00  0.000000000E+00 -4.434513996E+02  4.434513996E+02  0.000000000E+00  0.00000E+00  9.000E+00
      22     1     1     2     0     0 -5.780016305E+01  5.442866422E+01  4.067803455E+01  8.920785185E+01  2.078484985E-06  0.00000E+00  9.000E+00
      21     1     1     2   512   511  1.414724414E+02  2.344504313E+01 -3.672733177E+02  3.942763138E+02  0.000000000E+00  0.00000E+00  9.000E+00
      -3     1     1     2     0   514 -8.367227840E+01 -7.787370735E+01  4.662343713E+01  1.234467876E+02  3.438521648E-06  0.00000E+00  9.000E+00
#rwgt            1         193   6.1327727283442288E-004        6024     3246100           0
<rwgt>
<wgt id='central'>  0.558701677E+07 </wgt>
<wgt id='sudakovwgt'>  0.211888891E-01 </wgt>
<wgt id='scales0.50.5'>  0.705833835E+07 </wgt>
<wgt id='scales0.51.0'>  0.685202933E+07 </wgt>
<wgt id='scales1.00.5'>  0.575524062E+07 </wgt>
<wgt id='scales1.02.0'>  0.539946804E+07 </wgt>
<wgt id='scales2.01.0'>  0.464654434E+07 </wgt>
<wgt id='scales2.02.0'>  0.449056342E+07 </wgt>
</rwgt>
<scales uborns=' 0.152352649E+03'> </scales>
</event>
<event>
      5  10001  3.09092E+02  2.09479E+01  7.29735E-03  1.64726E-01
       2    -1     0     0   515     0  0.000000000E+00  0.000000000E+00  2.401403950E+03  2.401403950E+03  0.000000000E+00  0.00000E+00  9.000E+00
      21    -1     0     0   513   514  0.000000000E+00  0.000000000E+00 -2.988816149E+02  2.988816149E+02  0.000000000E+00  0.00000E+00  9.000E+00
       2     1     1     2   513     0  7.568769594E+02 -2.109907878E+02  6.152129285E+02  9.979312559E+02  1.078959322E-05  0.00000E+00  9.000E+00
      21     1     1     2   515   514 -7.775378248E+02  2.075346406E+02  1.423991485E+03  1.635661164E+03  3.411968960E-05  0.00000E+00  9.000E+00
      22     1     1     2     0     0  2.066086537E+01  3.456147227E+00  6.331792169E+01  6.669314447E+01  9.536743164E-07  0.00000E+00  9.000E+00
#rwgt            1         182   4.3023313464326642E-003        6024     3246189           0
<rwgt>
<wgt id='central'>  0.309091932E+03 </wgt>
<wgt id='sudakovwgt'>  0.652508898E-01 </wgt>
<wgt id='scales0.50.5'>  0.404728290E+03 </wgt>
<wgt id='scales0.51.0'>  0.363688598E+03 </wgt>
<wgt id='scales1.00.5'>  0.343970850E+03 </wgt>
<wgt id='scales1.02.0'>  0.279412710E+03 </wgt>
<wgt id='scales2.01.0'>  0.266041262E+03 </wgt>
<wgt id='scales2.02.0'>  0.240495743E+03 </wgt>
</rwgt>
<scales uborns=' 0.795182790E+03'> </scales>
</event>
<event>
      5  10001  9.36340E+02  5.52941E+02  7.29735E-03  9.76259E-02
       2    -1     0     0   512     0  0.000000000E+00  0.000000000E+00  1.178790497E+03  1.178790497E+03  0.000000000E+00  0.00000E+00  9.000E+00
       2    -1     0     0   511     0  0.000000000E+00  0.000000000E+00 -1.615712692E+03  1.615712692E+03  0.000000000E+00  0.00000E+00  9.000E+00
       2     1     1     2   511     0  7.089930365E+00  6.439744362E+02  9.901954196E+02  1.181202908E+03  2.157918644E-05  0.00000E+00  9.000E+00
      22     1     1     2     0     0  1.794131943E+02 -2.155248990E+02 -4.505400296E+02  5.306848355E+02  5.394796609E-06  0.00000E+00  9.000E+00
       2     1     1     2   512     0 -1.865031247E+02 -4.284495372E+02 -9.765775858E+02  1.082615445E+03  1.868812365E-05  0.00000E+00  9.000E+00
#rwgt            1          97   2.9753071606639808E-003        6024     3249278           0
<rwgt>
<wgt id='central'>  0.936340345E+03 </wgt>
<wgt id='sudakovwgt'>  0.601617363E-03 </wgt>
<wgt id='scales0.50.5'>  0.120582542E+04 </wgt>
<wgt id='scales0.51.0'>  0.110601692E+04 </wgt>
<wgt id='scales1.00.5'>  0.102083662E+04 </wgt>
<wgt id='scales1.02.0'>  0.863445425E+03 </wgt>
<wgt id='scales2.01.0'>  0.803284607E+03 </wgt>
<wgt id='scales2.02.0'>  0.740748467E+03 </wgt>
</rwgt>
<scales uborns=' 0.657064436E+03'> </scales>
</event>
<event>
      5  10001  2.60621E+01  1.12235E+01  7.29735E-03  1.90135E-01
      21    -1     0     0   513   511  0.000000000E+00  0.000000000E+00  4.515363429E+02  4.515363429E+02  0.000000000E+00  0.00000E+00  9.000E+00
       2    -1     0     0   512     0  0.000000000E+00  0.000000000E+00 -3.812094238E+03  3.812094238E+03  0.000000000E+00  0.00000E+00  9.000E+00
       2     1     1     2   513     0 -7.903247325E+02 -9.113416457E+02 -2.359892829E+03  2.650330346E+03  3.051757812E-05  0.00000E+00  9.000E+00
      21     1     1     2   512   511  8.150629755E+02  9.230652949E+02 -9.483908500E+02  1.554291606E+03  0.000000000E+00  0.00000E+00  9.000E+00
      22     1     1     2     0     0 -2.473824293E+01 -1.172364920E+01 -5.227421618E+01  5.900862896E+01  6.743495762E-07  0.00000E+00  9.000E+00
#rwgt            1         187   9.8242638616702054E-003        6024     3251919           0
<rwgt>
<wgt id='central'>  0.260620856E+02 </wgt>
<wgt id='sudakovwgt'>  0.125070566E-02 </wgt>
<wgt id='scales0.50.5'>  0.354456334E+02 </wgt>
<wgt id='scales0.51.0'>  0.304135858E+02 </wgt>
<wgt id='scales1.00.5'>  0.303741771E+02 </wgt>
<wgt id='scales1.02.0'>  0.225838491E+02 </wgt>
<wgt id='scales2.01.0'>  0.225901629E+02 </wgt>
<wgt id='scales2.02.0'>  0.195752772E+02 </wgt>
</rwgt>
<scales uborns=' 0.123241338E+04'> </scales>
</event>
<event>
      5  10001  6.96477E+01  1.32431E+01  7.29735E-03  1.82637E-01
       2    -1     0     0   515     0  0.000000000E+00  0.000000000E+00  1.204834874E+03  1.204834874E+03  0.000000000E+00  0.00000E+00  9.000E+00
      21    -1     0     0   514   513  0.000000000E+00  0.000000000E+00 -1.084890251E+03  1.084890251E+03  0.000000000E+00  0.00000E+00  9.000E+00
       2     1     1     2   514     0  9.695114134E+02 -3.369212572E+02  4.031052328E+02  1.102706735E+03  2.954851796E-05  0.00000E+00  9.000E+00
      21     1     1     2   515   513 -9.797174535E+02  3.453601692E+02 -3.673100227E+02  1.101833285E+03  2.530383904E-05  0.00000E+00  9.000E+00
      22     1     1     2     0     0  1.020604012E+01 -8.438911955E+00  8.414941253E+01  8.518510503E+01  9.536743164E-07  0.00000E+00  9.000E+00
#rwgt            1         182   4.5780962153409606E-003        6024     3253379           0
<rwgt>
<wgt id='central'>  0.696477334E+02 </wgt>
<wgt id='sudakovwgt'>  0.484394452E-01 </wgt>
<wgt id='scales0.50.5'>  0.915685133E+02 </wgt>
<wgt id='scales0.51.0'>  0.815391636E+02 </wgt>
<wgt id='scales1.00.5'>  0.782143950E+02 </wgt>
<wgt id='scales1.02.0'>  0.624935963E+02 </wgt>
<wgt id='scales2.01.0'>  0.602034669E+02 </wgt>
<wgt id='scales2.02.0'>  0.540194602E+02 </wgt>
</rwgt>
<scales uborns=' 0.103257756E+04'> </scales>
</event>
<event>
      4  10001  3.02580E+02  8.94427E-01  7.29735E-03  7.47152E-01
      21    -1     0     0   512   514  0.000000000E+00  0.000000000E+00  6.584455300E+02  6.584455300E+02  0.000000000E+00  0.00000E+00  9.000E+00
       1    -1     0     0   514     0  0.000000000E+00  0.000000000E+00 -1.219248312E+03  1.219248312E+03  0.000000000E+00  0.00000E+00  9.000E+00
       1     1     1     2   511     0 -1.965827235E+02  7.735337085E+02 -7.070726588E+02  1.066279002E+03  0.000000000E+00  0.00000E+00  9.000E+00
      21     1     1     2   512   511  1.965827235E+02 -7.735337085E+02  1.462698769E+02  8.114148398E+02  8.946258087E-06  0.00000E+00  9.000E+00
#rwgt            1         186   3.6820237196431025E-003        6024     3257680           0
<rwgt>
<wgt id='central'>  0.302579666E+03 </wgt>
<wgt id='sudakovwgt'>  0.228415312E+01 </wgt>
<wgt id='scales0.50.5'>  0.398137397E+03 </wgt>
<wgt id='scales0.51.0'>  0.356000266E+03 </wgt>
<wgt id='scales1.00.5'>  0.338394167E+03 </wgt>
<wgt id='scales1.02.0'>  0.272433392E+03 </wgt>
<wgt id='scales2.01.0'>  0.260452425E+03 </wgt>
<wgt id='scales2.02.0'>  0.234503066E+03 </wgt>
</rwgt>
<scales uborns=' 0.798122275E+03'> </scales>
</event>
<event>
      5  10001  5.44134E+01  6.73222E+02  7.29735E-03  9.53153E-02
      21    -1     0     0   515   514  0.000000000E+00  0.000000000E+00  1.055501849E+03  1.055501849E+03  0.000000000E+00  0.00000E+00  9.000E+00
      21    -1     0     0   513   515  0.000000000E+00  0.000000000E+00 -1.583656961E+03  1.583656961E+03  0.000000000E+00  0.00000E+00  9.000E+00
       4     1     1     2   513     0  2.044991384E+02 -9.649797818E+02 -9.059289629E+02  1.339295771E+03  1.078959322E-05  0.00000E+00  9.000E+00
      -4     1     1     2     0   514 -4.442042067E+02  4.154126562E+02  3.454057828E+02  6.994213372E+02  1.829464540E-05  0.00000E+00  9.000E+00
      22     1     1     2     0     0  2.397050683E+02  5.495671256E+02  3.236806818E+01  6.004417017E+02  1.451027303E-05  0.00000E+00  9.000E+00
#rwgt            1         204   2.7687478418193775E-005        6024     3259648           0
<rwgt>
<wgt id='central'>  0.544133543E+02 </wgt>
<wgt id='sudakovwgt'>  0.432246561E-03 </wgt>
<wgt id='scales0.50.5'>  0.764057191E+02 </wgt>
<wgt id='scales0.51.0'>  0.636518776E+02 </wgt>
<wgt id='scales1.00.5'>  0.653161401E+02 </wgt>
<wgt id='scales1.02.0'>  0.459304638E+02 </wgt>
<wgt id='scales2.01.0'>  0.470676218E+02 </wgt>
<wgt id='scales2.02.0'>  0.397298772E+02 </wgt>
</rwgt>
<scales uborns=' 0.107903153E+04'> </scales>
</event>
<event>
      5  10001  8.14950E+08  9.14990E-01  7.29735E-03  7.29659E-01
      21    -1     0     0   512   513  0.000000000E+00  0.000000000E+00  3.849555935E+02  3.849555935E+02  0.000000000E+00  0.00000E+00  9.000E+00
      -3    -1     0     0     0   511  0.000000000E+00  0.000000000E+00 -2.056503282E+01  2.056503282E+01  0.000000000E+00  0.00000E+00  9.000E+00
      -3     1     1     2     0   513  3.386196950E+01 -5.555858054E+01  4.713417131E+01  8.034313259E+01  9.536743164E-07  0.00000E+00  9.000E+00
      21     1     1     2   512   511 -3.491087454E+01  5.636827593E+01  3.169587661E+02  3.238194113E+02  6.607249480E-06  0.00000E+00  9.000E+00
      22     1     1     2     0     0  1.048905045E+00 -8.096953942E-01  2.976232882E-01  1.358082489E+00  4.097819328E-08  0.00000E+00  9.000E+00
#rwgt            1         198   8.9840860110155043E-004        6024     3259762           0
<rwgt>
<wgt id='central'>  0.814950281E+09 </wgt>
<wgt id='sudakovwgt'>  0.261858493E-01 </wgt>
<wgt id='scales0.50.5'>  0.973810789E+09 </wgt>
<wgt id='scales0.51.0'>  0.103035227E+10 </wgt>
<wgt id='scales1.00.5'>  0.770228908E+09 </wgt>
<wgt id='scales1.02.0'>  0.845937218E+09 </wgt>
<wgt id='scales2.01.0'>  0.661531324E+09 </wgt>
<wgt id='scales2.02.0'>  0.686685034E+09 </wgt>
</rwgt>
<scales uborns=' 0.663645970E+02'> </scales>
</event>
<event>
      4  10001  6.24135E+07  8.94427E-01  7.29735E-03  7.35917E-01
      -1    -1     0     0     0   514  0.000000000E+00  0.000000000E+00  3.901685962E+03  3.901685962E+03  0.000000000E+00  0.00000E+00  9.000E+00
      21    -1     0     0   515   511  0.000000000E+00  0.000000000E+00 -5.269818591E+01  5.269818591E+01  0.000000000E+00  0.00000E+00  9.000E+00
      -1     1     1     2     0   511  2.557500880E+01  9.859444058E+01  3.851156827E+03  3.852503582E+03  6.103515625E-05  0.00000E+00  9.000E+00
      21     1     1     2   515   514 -2.557500880E+01 -9.859444058E+01 -2.169051369E+00  1.018805652E+02  3.279745240E-06  0.00000E+00  9.000E+00
#rwgt            1         191   8.5957342890076276E-004        6024     3260031           0
<rwgt>
<wgt id='central'>  0.624134902E+08 </wgt>
<wgt id='sudakovwgt'>  0.133375676E+01 </wgt>
<wgt id='scales0.50.5'>  0.818201052E+08 </wgt>
<wgt id='scales0.51.0'>  0.775971163E+08 </wgt>
<wgt id='scales1.00.5'>  0.658101664E+08 </wgt>
<wgt id='scales1.02.0'>  0.588790185E+08 </wgt>
<wgt id='scales2.01.0'>  0.513406384E+08 </wgt>
<wgt id='scales2.02.0'>  0.484332139E+08 </wgt>
</rwgt>
<scales uborns=' 0.101857473E+03'> </scales>
</event>
<event>
      5  10001  2.05292E+01  2.66593E+00  7.29735E-03  3.13346E-01
       2    -1     0     0   512     0  0.000000000E+00  0.000000000E+00  9.845379119E+02  9.845379119E+02  0.000000000E+00  0.00000E+00  9.000E+00
      -2    -1     0     0     0   511  0.000000000E+00  0.000000000E+00 -1.716379890E+03  1.716379890E+03  0.000000000E+00  0.00000E+00  9.000E+00
       5     1     1     2   512     0 -3.618539870E+02  1.236424557E+03 -4.421851464E+02  1.362061561E+03  3.099074709E-05  0.00000E+00  9.000E+00
      -5     1     1     2     0   511  3.634484915E+02 -1.234288027E+03 -2.645412466E+02  1.313599562E+03  2.905186884E-05  0.00000E+00  9.000E+00
      22     1     1     2     0     0 -1.594504459E+00 -2.136529928E+00 -2.511558495E+01  2.525667856E+01  0.000000000E+00  0.00000E+00  9.000E+00
#rwgt            1          62   7.7431852029590295E-006        6024     3260984           0
<rwgt>
<wgt id='central'>  0.205292266E+02 </wgt>
<wgt id='sudakovwgt'>  0.240843499E+01 </wgt>
<wgt id='scales0.50.5'>  0.263404121E+02 </wgt>
<wgt id='scales0.51.0'>  0.239382822E+02 </wgt>
<wgt id='scales1.00.5'>  0.225892394E+02 </wgt>
<wgt id='scales1.02.0'>  0.187605972E+02 </wgt>
<wgt id='scales2.01.0'>  0.178061598E+02 </wgt>
<wgt id='scales2.02.0'>  0.162721485E+02 </wgt>
</rwgt>
<scales uborns=' 0.128748610E+04'> </scales>
</event>
<event>
      5  10001  1.48264E+02  1.72718E+02  7.29735E-03  1.14017E-01
      21    -1     0     0   513   514  0.000000000E+00  0.000000000E+00  2.196523836E+02  2.196523836E+02  0.000000000E+00  0.00000E+00  9.000E+00
       2    -1     0     0   512     0  0.000000000E+00  0.000000000E+00 -3.759970201E+03  3.759970201E+03  0.000000000E+00  0.00000E+00  9.000E+00
       2     1     1     2   513     0 -2.846069851E+02 -7.048548429E+02 -1.370163095E+03  1.566897697E+03  0.000000000E+00  0.00000E+00  9.000E+00
      21     1     1     2   512   514  3.380433918E+02  8.010287197E+02 -1.501318568E+03  1.734899935E+03  0.000000000E+00  0.00000E+00  9.000E+00
      22     1     1     2     0     0 -5.343640671E+01 -9.617387683E+01 -6.688361548E+02  6.778249524E+02  1.078959322E-05  0.00000E+00  9.000E+00
#rwgt            1         187   2.9403881098277140E-002        6024     3262951           0
<rwgt>
<wgt id='central'>  0.148264093E+03 </wgt>
<wgt id='sudakovwgt'>  0.794343836E-01 </wgt>
<wgt id='scales0.50.5'>  0.198694149E+03 </wgt>
<wgt id='scales0.51.0'>  0.174016790E+03 </wgt>
<wgt id='scales1.00.5'>  0.169289350E+03 </wgt>
<wgt id='scales1.02.0'>  0.130846118E+03 </wgt>
<wgt id='scales2.01.0'>  0.127884654E+03 </wgt>
<wgt id='scales2.02.0'>  0.112860914E+03 </wgt>
</rwgt>
<scales uborns=' 0.903725501E+03'> </scales>
</event>
<event>
      5  10001  1.03830E+01  2.94095E+01  7.29735E-03  1.53642E-01
       2    -1     0     0   513     0  0.000000000E+00  0.000000000E+00  2.961998929E+03  2.961998929E+03  0.000000000E+00  0.00000E+00  9.000E+00
       2    -1     0     0   511     0  0.000000000E+00  0.000000000E+00 -1.528681027E+03  1.528681027E+03  0.000000000E+00  0.00000E+00  9.000E+00
       2     1     1     2   511     0 -6.141001751E+02 -1.342087304E+03  9.987532436E+02  1.782084566E+03  3.737624730E-05  0.00000E+00  9.000E+00
       2     1     1     2   513     0  5.943989199E+02  1.320252090E+03 -6.758034331E+02  1.597837894E+03  4.315837288E-05  0.00000E+00  9.000E+00
      22     1     1     2     0     0  1.970125516E+01  2.183521456E+01  1.110368091E+03  1.110757496E+03  1.525878906E-05  0.00000E+00  9.000E+00
#rwgt            1          97   3.2591674426865214E-003        6024     3263692           0
<rwgt>
<wgt id='central'>  0.103830232E+02 </wgt>
<wgt id='sudakovwgt'>  0.160293949E+00 </wgt>
<wgt id='scales0.50.5'>  0.132992432E+02 </wgt>
<wgt id='scales0.51.0'>  0.120804578E+02 </wgt>
<wgt id='scales1.00.5'>  0.114305305E+02 </wgt>
<wgt id='scales1.02.0'>  0.948748167E+01 </wgt>
<wgt id='scales2.01.0'>  0.902284144E+01 </wgt>
<wgt id='scales2.02.0'>  0.824463477E+01 </wgt>
</rwgt>
<scales uborns=' 0.146184198E+04'> </scales>
</event>
<event>
      5  10001  6.54644E+03  1.51418E+00  7.29735E-03  4.30841E-01
       2    -1     0     0   511     0  0.000000000E+00  0.000000000E+00  1.954102451E+03  1.954102451E+03  0.000000000E+00  0.00000E+00  9.000E+00
      21    -1     0     0   512   514  0.000000000E+00  0.000000000E+00 -5.269665354E+02  5.269665354E+02  0.000000000E+00  0.00000E+00  9.000E+00
       2     1     1     2   512     0  4.705210246E+02 -4.675574918E+01  1.806761354E+03  1.867608826E+03  2.157918644E-05  0.00000E+00  9.000E+00
      21     1     1     2   511   514 -4.691835694E+02  4.604584325E+01 -3.845016237E+02  6.083542882E+02  1.789251617E-05  0.00000E+00  9.000E+00
      22     1     1     2     0     0 -1.337455233E+00  7.099059273E-01  4.876184787E+00  5.105872208E+00  0.000000000E+00  0.00000E+00  9.000E+00
#rwgt            1         182   1.1009744385441139E-002        6024     3299609           0
<rwgt>
<wgt id='central'>  0.654644136E+04 </wgt>
<wgt id='sudakovwgt'>  0.191660516E+00 </wgt>
<wgt id='scales0.50.5'>  0.879487040E+04 </wgt>
<wgt id='scales0.51.0'>  0.778859142E+04 </wgt>
<wgt id='scales1.00.5'>  0.739223413E+04 </wgt>
<wgt id='scales1.02.0'>  0.584320939E+04 </wgt>
<wgt id='scales2.01.0'>  0.558231846E+04 </wgt>
<wgt id='scales2.02.0'>  0.498265556E+04 </wgt>
</rwgt>
<scales uborns=' 0.472137807E+03'> </scales>
</event>
<event>
      5  10001  1.71962E+05  3.68690E+01  7.29735E-03  1.47070E-01
      21    -1     0     0   512   515  0.000000000E+00  0.000000000E+00  3.519868705E+02  3.519868705E+02  0.000000000E+00  0.00000E+00  9.000E+00
       2    -1     0     0   515     0  0.000000000E+00  0.000000000E+00 -5.468782814E+02  5.468782814E+02  0.000000000E+00  0.00000E+00  9.000E+00
      22     1     1     2     0     0  3.252413482E+01  6.351642953E+01 -1.028346620E+02  1.251683821E+02  2.697398305E-06  0.00000E+00  9.000E+00
      21     1     1     2   512   513 -1.087173394E+02 -2.497987232E+02  2.545807494E+02  3.728675636E+02  3.814697266E-06  0.00000E+00  9.000E+00
       2     1     1     2   513     0  7.619320462E+01  1.862822937E+02 -3.466374983E+02  4.008292062E+02  3.814697266E-06  0.00000E+00  9.000E+00
#rwgt            1         187   5.2494315083281458E-003        6024     3313493           0
<rwgt>
<wgt id='central'>  0.171961531E+06 </wgt>
<wgt id='sudakovwgt'>  0.704268045E-03 </wgt>
<wgt id='scales0.50.5'>  0.219948519E+06 </wgt>
<wgt id='scales0.51.0'>  0.207369787E+06 </wgt>
<wgt id='scales1.00.5'>  0.182392950E+06 </wgt>
<wgt id='scales1.02.0'>  0.162373769E+06 </wgt>
<wgt id='scales2.01.0'>  0.145001430E+06 </wgt>
<wgt id='scales2.02.0'>  0.136916462E+06 </wgt>
</rwgt>
<scales uborns=' 0.272583396E+03'> </scales>
</event>
<event>
      4  10001  2.38560E+07  8.94427E-01  7.29735E-03  7.46987E-01
      -1    -1     0     0     0   511  0.000000000E+00  0.000000000E+00  1.586884356E+02  1.586884356E+02  0.000000000E+00  0.00000E+00  9.000E+00
      21    -1     0     0   513   512  0.000000000E+00  0.000000000E+00 -9.293143511E+01  9.293143511E+01  0.000000000E+00  0.00000E+00  9.000E+00
      -1     1     1     2     0   512 -1.027496510E+02  6.117153707E+01  5.479911574E+01  1.315385526E+02  9.536743164E-07  0.00000E+00  9.000E+00
      21     1     1     2   513   511  1.027496510E+02 -6.117153707E+01  1.095788480E+01  1.200813182E+02  1.250277577E-06  0.00000E+00  9.000E+00
#rwgt            1         191   1.0957991385788595E-003        6024     3314029           0
<rwgt>
<wgt id='central'>  0.238559868E+08 </wgt>
<wgt id='sudakovwgt'>  0.199991095E+01 </wgt>
<wgt id='scales0.50.5'>  0.284430040E+08 </wgt>
<wgt id='scales0.51.0'>  0.294921732E+08 </wgt>
<wgt id='scales1.00.5'>  0.230073348E+08 </wgt>
<wgt id='scales1.02.0'>  0.243933087E+08 </wgt>
<wgt id='scales2.01.0'>  0.197127978E+08 </wgt>
<wgt id='scales2.02.0'>  0.201567892E+08 </wgt>
</rwgt>
<scales uborns=' 0.119580298E+03'> </scales>
</event>
<event>
      5  10001  5.16957E+01  3.80466E+01  7.29735E-03  1.46201E-01
       2    -1     0     0   515     0  0.000000000E+00  0.000000000E+00  2.246900975E+03  2.246900975E+03  0.000000000E+00  0.00000E+00  9.000E+00
      21    -1     0     0   514   512  0.000000000E+00  0.000000000E+00 -1.561858182E+03  1.561858182E+03  0.000000000E+00  0.00000E+00  9.000E+00
       2     1     1     2   514     0 -5.201502877E+02  9.373831051E+02  1.319628406E+03  1.700194853E+03  0.000000000E+00  0.00000E+00  9.000E+00
      21     1     1     2   515   512  5.516658191E+02 -9.586977882E+02 -1.147757676E+03  1.593983785E+03  0.000000000E+00  0.00000E+00  9.000E+00
      22     1     1     2     0     0 -3.151553144E+01  2.131468302E+01  5.131720627E+02  5.145805189E+02  7.629394531E-06  0.00000E+00  9.000E+00
#rwgt            1         182   6.2347678272965199E-003        6024     3314712           0
<rwgt>
<wgt id='central'>  0.516956655E+02 </wgt>
<wgt id='sudakovwgt'>  0.392946233E-01 </wgt>
<wgt id='scales0.50.5'>  0.703034118E+02 </wgt>
<wgt id='scales0.51.0'>  0.604625535E+02 </wgt>
<wgt id='scales1.00.5'>  0.601096691E+02 </wgt>
<wgt id='scales1.02.0'>  0.449359446E+02 </wgt>
<wgt id='scales2.01.0'>  0.447232423E+02 </wgt>
<wgt id='scales2.02.0'>  0.388752089E+02 </wgt>
</rwgt>
<scales uborns=' 0.108896785E+04'> </scales>
</event>
<event>
      5  10001  1.01114E+04  3.84300E+01  7.29735E-03  1.45927E-01
       4    -1     0     0   512     0  0.000000000E+00  0.000000000E+00  1.207907559E+02  1.207907559E+02  0.000000000E+00  0.00000E+00  9.000E+00
       2    -1     0     0   511     0  0.000000000E+00  0.000000000E+00 -3.525876576E+03  3.525876576E+03  0.000000000E+00  0.00000E+00  9.000E+00
       4     1     1     2   511     0  9.473404847E+01 -4.243956207E+02 -3.945984447E+02  5.871917195E+02  1.078959322E-05  0.00000E+00  9.000E+00
       2     1     1     2   512     0 -9.802632935E+01  4.227258910E+02 -3.019088892E+03  3.050115420E+03  4.315837288E-05  0.00000E+00  9.000E+00
      22     1     1     2     0     0  3.292280881E+00  1.669729696E+00  8.601516472E+00  9.360192106E+00  6.637292341E-07  0.00000E+00  9.000E+00
#rwgt            1          99   8.0752544796857707E-004        6024     3317754           0
<rwgt>
<wgt id='central'>  0.101113641E+05 </wgt>
<wgt id='sudakovwgt'>  0.106505112E-02 </wgt>
<wgt id='scales0.50.5'>  0.127290671E+05 </wgt>
<wgt id='scales0.51.0'>  0.120502805E+05 </wgt>
<wgt id='scales1.00.5'>  0.106809704E+05 </wgt>
<wgt id='scales1.02.0'>  0.955055475E+04 </wgt>
<wgt id='scales2.01.0'>  0.861010375E+04 </wgt>
<wgt id='scales2.02.0'>  0.813253034E+04 </wgt>
</rwgt>
<scales uborns=' 0.438726257E+03'> </scales>
</event>
<event>
      5  10001  1.32110E+02  1.62272E+00  7.29735E-03  4.11535E-01
       2    -1     0     0   511     0  0.000000000E+00  0.000000000E+00  1.902866907E+03  1.902866907E+03  0.000000000E+00  0.00000E+00  9.000E+00
       2    -1     0     0   513     0  0.000000000E+00  0.000000000E+00 -2.346814707E+03  2.346814707E+03  0.000000000E+00  0.00000E+00  9.000E+00
       2     1     1     2   513     0 -9.016452689E+02  1.904185403E+02  1.689495623E+03  1.924478858E+03  3.051757812E-05  0.00000E+00  9.000E+00
       2     1     1     2   511     0  9.031309337E+02 -1.897658262E+02 -2.127312506E+03  2.318860723E+03  6.103515625E-05  0.00000E+00  9.000E+00
      22     1     1     2     0     0 -1.485664797E+00 -6.527140610E-01 -6.130917729E+00  6.342033407E+00  0.000000000E+00  0.00000E+00  9.000E+00
#rwgt            1          97   7.1296432896258647E-003        6024     3320449           0
<rwgt>
<wgt id='central'>  0.132109835E+03 </wgt>
<wgt id='sudakovwgt'>  0.821378810E+01 </wgt>
<wgt id='scales0.50.5'>  0.175541872E+03 </wgt>
<wgt id='scales0.51.0'>  0.154996715E+03 </wgt>
<wgt id='scales1.00.5'>  0.149621472E+03 </wgt>
<wgt id='scales1.02.0'>  0.117637668E+03 </wgt>
<wgt id='scales2.01.0'>  0.113988663E+03 </wgt>
<wgt id='scales2.02.0'>  0.101501480E+03 </wgt>
</rwgt>
<scales uborns=' 0.922192626E+03'> </scales>
</event>
<event>
      5  10001  1.45412E+03  1.85585E+01  7.29735E-03  1.69095E-01
       1    -1     0     0   511     0  0.000000000E+00  0.000000000E+00  2.584168967E+03  2.584168967E+03  0.000000000E+00  0.00000E+00  9.000E+00
      -4    -1     0     0     0   511  0.000000000E+00  0.000000000E+00 -1.439703526E+02  1.439703526E+02  0.000000000E+00  0.00000E+00  9.000E+00
       1     1     1     2   512     0 -5.856331605E+02  1.528472299E+02  1.265900947E+03  1.403151340E+03  1.525878906E-05  0.00000E+00  9.000E+00
      -4     1     1     2     0   512  5.775832169E+02 -1.393573290E+02  1.161797248E+03  1.304912136E+03  2.157918644E-05  0.00000E+00  9.000E+00
      22     1     1     2     0     0  8.049943631E+00 -1.348990083E+01  1.250041929E+01  2.007584368E+01  4.460403188E-07  0.00000E+00  9.000E+00
#rwgt            1         143   4.8255734025115332E-005        6024     3495496           0
<rwgt>
<wgt id='central'>  0.145412236E+04 </wgt>
<wgt id='sudakovwgt'>  0.395224601E-02 </wgt>
<wgt id='scales0.50.5'>  0.180969380E+04 </wgt>
<wgt id='scales0.51.0'>  0.172034686E+04 </wgt>
<wgt id='scales1.00.5'>  0.152964034E+04 </wgt>
<wgt id='scales1.02.0'>  0.137953249E+04 </wgt>
<wgt id='scales2.01.0'>  0.124582375E+04 </wgt>
<wgt id='scales2.02.0'>  0.118192057E+04 </wgt>
</rwgt>
<scales uborns=' 0.609464765E+03'> </scales>
</event>
<event>
      5  10001  1.66556E+03  8.28128E+01  7.29735E-03  1.27627E-01
       2    -1     0     0   511     0  0.000000000E+00  0.000000000E+00  4.480586049E+02  4.480586049E+02  0.000000000E+00  0.00000E+00  9.000E+00
       1    -1     0     0   513     0  0.000000000E+00  0.000000000E+00 -1.171487392E+03  1.171487392E+03  0.000000000E+00  0.00000E+00  9.000E+00
       2     1     1     2   513     0 -5.248716425E+02 -1.846199788E+02 -7.045665983E+01  5.608376936E+02  9.392602732E-06  0.00000E+00  9.000E+00
       1     1     1     2   511     0  5.941290876E+02  2.300221948E+02 -7.131904210E+02  9.563159308E+02  1.078959322E-05  0.00000E+00  9.000E+00
      22     1     1     2     0     0 -6.925744513E+01 -4.540221601E+01  6.021829410E+01  1.023923721E+02  1.507891493E-06  0.00000E+00  9.000E+00
#rwgt            1          92   5.7630265780877793E-004        6024     3500652           0
<rwgt>
<wgt id='central'>  0.166556499E+04 </wgt>
<wgt id='sudakovwgt'>  0.312013119E-01 </wgt>
<wgt id='scales0.50.5'>  0.207338930E+04 </wgt>
<wgt id='scales0.51.0'>  0.197147075E+04 </wgt>
<wgt id='scales1.00.5'>  0.175166397E+04 </wgt>
<wgt id='scales1.02.0'>  0.158702434E+04 </wgt>
<wgt id='scales2.01.0'>  0.142638327E+04 </wgt>
<wgt id='scales2.02.0'>  0.135912543E+04 </wgt>
</rwgt>
<scales uborns=' 0.595523491E+03'> </scales>
</event>
<event>
      5  10001  8.00694E+02  2.16109E+01  7.29735E-03  1.63640E-01
      21    -1     0     0   513   514  0.000000000E+00  0.000000000E+00  2.024808052E+02  2.024808052E+02  0.000000000E+00  0.00000E+00  9.000E+00
      -4    -1     0     0     0   512  0.000000000E+00  0.000000000E+00 -3.522796687E+03  3.522796687E+03  0.000000000E+00  0.00000E+00  9.000E+00
      -4     1     1     2     0   514  3.704447800E+02  3.019938419E+02 -1.923050738E+03  1.981553369E+03  2.157918644E-05  0.00000E+00  9.000E+00
      21     1     1     2   513   512 -5.133154569E+02 -4.378056366E+02 -5.401971885E+02  8.642797788E+02  1.321449896E-05  0.00000E+00  9.000E+00
      22     1     1     2     0     0  1.428706768E+02  1.358117947E+02 -8.570679560E+02  8.794443445E+02  1.078959322E-05  0.00000E+00  9.000E+00
#rwgt            1         199   1.3547512194095135E-003        6024     3505163           0
<rwgt>
<wgt id='central'>  0.800694263E+03 </wgt>
<wgt id='sudakovwgt'>  0.831792773E-03 </wgt>
<wgt id='scales0.50.5'>  0.108001029E+04 </wgt>
<wgt id='scales0.51.0'>  0.945263470E+03 </wgt>
<wgt id='scales1.00.5'>  0.914832514E+03 </wgt>
<wgt id='scales1.02.0'>  0.706193573E+03 </wgt>
<wgt id='scales2.01.0'>  0.687237026E+03 </wgt>
<wgt id='scales2.02.0'>  0.606127148E+03 </wgt>
</rwgt>
<scales uborns=' 0.674916120E+03'> </scales>
</event>
<event>
      4  10001  1.31357E+06  8.94427E-01  7.29735E-03  7.49494E-01
      21    -1     0     0   511   514  0.000000000E+00  0.000000000E+00  5.532532703E+02  5.532532703E+02  0.000000000E+00  0.00000E+00  9.000E+00
       5    -1     0     0   515     0  0.000000000E+00  0.000000000E+00 -8.269731157E+01  8.269731157E+01  0.000000000E+00  0.00000E+00  9.000E+00
       5     1     1     2   511     0 -7.945411622E+00 -1.938512842E+02  1.013948737E+02  2.189117867E+02  4.264961200E-06  0.00000E+00  9.000E+00
      21     1     1     2   515   514  7.945411622E+00  1.938512842E+02  3.691610850E+02  4.170387951E+02  0.000000000E+00  0.00000E+00  9.000E+00
#rwgt            1         190   3.5956702068956403E-004        6024     3505532           0
<rwgt>
<wgt id='central'>  0.131357178E+07 </wgt>
<wgt id='sudakovwgt'>  0.133418546E+01 </wgt>
<wgt id='scales0.50.5'>  0.150372224E+07 </wgt>
<wgt id='scales0.51.0'>  0.159914689E+07 </wgt>
<wgt id='scales1.00.5'>  0.123518636E+07 </wgt>
<wgt id='scales1.02.0'>  0.136004592E+07 </wgt>
<wgt id='scales2.01.0'>  0.109902909E+07 </wgt>
<wgt id='scales2.02.0'>  0.113791426E+07 </wgt>
</rwgt>
<scales uborns=' 0.194014046E+03'> </scales>
</event>
<event>
      5  10001  2.12094E+07  1.11420E+00  7.29735E-03  5.78700E-01
      21    -1     0     0   512   513  0.000000000E+00  0.000000000E+00  1.203077257E+03  1.203077257E+03  0.000000000E+00  0.00000E+00  9.000E+00
      -1    -1     0     0     0   512  0.000000000E+00  0.000000000E+00 -8.339413114E+01  8.339413114E+01  0.000000000E+00  0.00000E+00  9.000E+00
      -1     1     1     2     0   511 -3.534326893E+01  1.172596716E+02 -2.087001989E+01  1.242358039E+02  3.438521648E-06  0.00000E+00  9.000E+00
      21     1     1     2   511   513  3.541985590E+01 -1.161481071E+02  1.148152085E+03  1.154555395E+03  1.525878906E-05  0.00000E+00  9.000E+00
      22     1     1     2     0     0 -7.658697018E-02 -1.111564488E+00 -7.598939046E+00  7.680189829E+00  3.769728732E-07  0.00000E+00  9.000E+00
#rwgt            1         196   8.0051988753660288E-004        6024     3505973           0
<rwgt>
<wgt id='central'>  0.212093763E+08 </wgt>
<wgt id='sudakovwgt'>  0.263561092E-01 </wgt>
<wgt id='scales0.50.5'>  0.281076720E+08 </wgt>
<wgt id='scales0.51.0'>  0.262026990E+08 </wgt>
<wgt id='scales1.00.5'>  0.227513532E+08 </wgt>
<wgt id='scales1.02.0'>  0.197965188E+08 </wgt>
<wgt id='scales2.01.0'>  0.175353012E+08 </wgt>
<wgt id='scales2.02.0'>  0.163671730E+08 </wgt>
</rwgt>
<scales uborns=' 0.121949205E+03'> </scales>
</event>
<event>
      4  10001  4.66149E+01  8.94427E-01  7.29735E-03  7.18406E-01
      21    -1     0     0   515   513  0.000000000E+00  0.000000000E+00  6.614666880E+02  6.614666880E+02  0.000000000E+00  0.00000E+00  9.000E+00
      -3    -1     0     0     0   514  0.000000000E+00  0.000000000E+00 -1.970467239E+03  1.970467239E+03  0.000000000E+00  0.00000E+00  9.000E+00
      -3     1     1     2     0   513  6.519850970E+02  8.975375249E+02 -9.653810194E+02  1.470584472E+03  1.078959322E-05  0.00000E+00  9.000E+00
      21     1     1     2   515   514 -6.519850970E+02 -8.975375249E+02 -3.436195317E+02  1.161349456E+03  7.629394531E-06  0.00000E+00  9.000E+00
#rwgt            1         198   1.1801901909448823E-004        6024     3506760           0
<rwgt>
<wgt id='central'>  0.466148855E+02 </wgt>
<wgt id='sudakovwgt'>  0.260275684E+01 </wgt>
<wgt id='scales0.50.5'>  0.641144612E+02 </wgt>
<wgt id='scales0.51.0'>  0.545015735E+02 </wgt>
<wgt id='scales1.00.5'>  0.548367507E+02 </wgt>
<wgt id='scales1.02.0'>  0.399478908E+02 </wgt>
<wgt id='scales2.01.0'>  0.403394163E+02 </wgt>
<wgt id='scales2.02.0'>  0.345699464E+02 </wgt>
</rwgt>
<scales uborns=' 0.110935034E+04'> </scales>
</event>
<event>
      4  10001  4.72138E+05  8.94427E-01  7.29735E-03  7.44105E-01
       1    -1     0     0   514     0  0.000000000E+00  0.000000000E+00  1.991404277E+03  1.991404277E+03  0.000000000E+00  0.00000E+00  9.000E+00
      21    -1     0     0   511   512  0.000000000E+00  0.000000000E+00 -2.667211497E+01  2.667211497E+01  0.000000000E+00  0.00000E+00  9.000E+00
       1     1     1     2   511     0 -6.269179990E+01 -2.214987832E+02  9.338108487E+02  9.617664342E+02  1.868812365E-05  0.00000E+00  9.000E+00
      21     1     1     2   514   512  6.269179990E+01  2.214987832E+02  1.030921314E+03  1.056309958E+03  2.157918644E-05  0.00000E+00  9.000E+00
#rwgt            1         181   4.6079927550093536E-003        6024     3507353           0
<rwgt>
<wgt id='central'>  0.472138100E+06 </wgt>
<wgt id='sudakovwgt'>  0.193756889E+01 </wgt>
<wgt id='scales0.50.5'>  0.590036459E+06 </wgt>
<wgt id='scales0.51.0'>  0.571976510E+06 </wgt>
<wgt id='scales1.00.5'>  0.487045584E+06 </wgt>
<wgt id='scales1.02.0'>  0.455496657E+06 </wgt>
<wgt id='scales2.01.0'>  0.396611887E+06 </wgt>
<wgt id='scales2.02.0'>  0.382632595E+06 </wgt>
</rwgt>
<scales uborns=' 0.230199854E+03'> </scales>
</event>
<event>
      5  10001  6.06199E+02  7.55198E+01  7.29735E-03  1.29573E-01
       2    -1     0     0   513     0  0.000000000E+00  0.000000000E+00  1.730634100E+03  1.730634100E+03  0.000000000E+00  0.00000E+00  9.000E+00
      -5    -1     0     0     0   513  0.000000000E+00  0.000000000E+00 -4.244465583E+02  4.244465583E+02  0.000000000E+00  0.00000E+00  9.000E+00
       2     1     1     2   514     0  5.052627463E+02  4.660987738E+02  6.401899350E+02  9.393517246E+02  1.078959322E-05  0.00000E+00  9.000E+00
      -5     1     1     2     0   514 -4.914695496E+02 -5.403482427E+02  2.192166023E+02  7.626102938E+02  1.789251617E-05  0.00000E+00  9.000E+00
      22     1     1     2     0     0 -1.379319667E+01  7.424946885E+01  4.467810049E+02  4.531186403E+02  5.394796609E-06  0.00000E+00  9.000E+00
#rwgt            1         148   8.9493199870032029E-005        6024     3508328           0
<rwgt>
<wgt id='central'>  0.606199330E+03 </wgt>
<wgt id='sudakovwgt'>  0.281509733E-01 </wgt>
<wgt id='scales0.50.5'>  0.711009227E+03 </wgt>
<wgt id='scales0.51.0'>  0.714948226E+03 </wgt>
<wgt id='scales1.00.5'>  0.602859154E+03 </wgt>
<wgt id='scales1.02.0'>  0.603556725E+03 </wgt>
<wgt id='scales2.01.0'>  0.520733740E+03 </wgt>
<wgt id='scales2.02.0'>  0.518463987E+03 </wgt>
</rwgt>
<scales uborns=' 0.707934988E+03'> </scales>
</event>
<event>
      5  10001  1.14039E+04  1.31648E+00  7.29735E-03  4.94388E-01
      21    -1     0     0   512   514  0.000000000E+00  0.000000000E+00  2.078303773E+02  2.078303773E+02  0.000000000E+00  0.00000E+00  9.000E+00
       2    -1     0     0   514     0  0.000000000E+00  0.000000000E+00 -1.252169739E+03  1.252169739E+03  0.000000000E+00  0.00000E+00  9.000E+00
      22     1     1     2     0     0  9.071889880E+00 -7.909295469E+00 -2.562166384E+01  2.830769858E+01  4.768371582E-07  0.00000E+00  9.000E+00
      21     1     1     2   512   511 -3.231841675E+02  2.835130359E+02 -1.292038050E+02  4.489112060E+02  6.877043296E-06  0.00000E+00  9.000E+00
       2     1     1     2   511     0  3.141122776E+02 -2.756037404E+02 -8.895138931E+02  9.827812121E+02  0.000000000E+00  0.00000E+00  9.000E+00
#rwgt            1         187   1.2344446796553527E-002        6024     3509212           0
<rwgt>
<wgt id='central'>  0.114039328E+05 </wgt>
<wgt id='sudakovwgt'>  0.316982584E+00 </wgt>
<wgt id='scales0.50.5'>  0.145108346E+05 </wgt>
<wgt id='scales0.51.0'>  0.135970347E+05 </wgt>
<wgt id='scales1.00.5'>  0.121703084E+05 </wgt>
<wgt id='scales1.02.0'>  0.107037669E+05 </wgt>
<wgt id='scales2.01.0'>  0.970687164E+04 </wgt>
<wgt id='scales2.02.0'>  0.911092620E+04 </wgt>
</rwgt>
<scales uborns=' 0.429915882E+03'> </scales>
</event>
<event>
      5  10001  7.48549E+03  4.21773E+00  7.29735E-03  2.58161E-01
      21    -1     0     0   513   514  0.000000000E+00  0.000000000E+00  2.932330984E+02  2.932330984E+02  0.000000000E+00  0.00000E+00  9.000E+00
       2    -1     0     0   511     0  0.000000000E+00  0.000000000E+00 -1.626019371E+03  1.626019371E+03  0.000000000E+00  0.00000E+00  9.000E+00
      22     1     1     2     0     0  3.229395490E+01 -6.293954196E+00 -9.902433226E+01  1.043471694E+02  1.907348633E-06  0.00000E+00  9.000E+00
      21     1     1     2   511   514 -4.536265891E+02  8.524159679E+01  4.734110269E+01  4.639874914E+02  1.027138673E-05  0.00000E+00  9.000E+00
       2     1     1     2   513     0  4.213326342E+02 -7.894764259E+01 -1.281103043E+03  1.350917809E+03  2.157918644E-05  0.00000E+00  9.000E+00
#rwgt            1         187   1.4204310562105461E-002        6024     3513282           0
<rwgt>
<wgt id='central'>  0.748548613E+04 </wgt>
<wgt id='sudakovwgt'>  0.274080866E+00 </wgt>
<wgt id='scales0.50.5'>  0.974765578E+04 </wgt>
<wgt id='scales0.51.0'>  0.891042270E+04 </wgt>
<wgt id='scales1.00.5'>  0.818883484E+04 </wgt>
<wgt id='scales1.02.0'>  0.687299879E+04 </wgt>
<wgt id='scales2.01.0'>  0.638031183E+04 </wgt>
<wgt id='scales2.02.0'>  0.585825050E+04 </wgt>
</rwgt>
<scales uborns=' 0.461566375E+03'> </scales>
</event>
<event>
      5  10001  5.83384E+00  1.22651E+02  7.29735E-03  1.19967E-01
       1    -1     0     0   513     0  0.000000000E+00  0.000000000E+00  1.504294127E+03  1.504294127E+03  0.000000000E+00  0.00000E+00  9.000E+00
       2    -1     0     0   512     0  0.000000000E+00  0.000000000E+00 -3.163100001E+03  3.163100001E+03  0.000000000E+00  0.00000E+00  9.000E+00
       1     1     1     2   512     0  8.484264228E+02 -1.387764923E+03  7.157659084E+02  1.777087424E+03  1.705984480E-05  0.00000E+00  9.000E+00
       2     1     1     2   513     0 -7.748032381E+02  1.170131580E+03 -1.890376650E+03  2.354368673E+03  0.000000000E+00  0.00000E+00  9.000E+00
      22     1     1     2     0     0 -7.362318466E+01  2.176333436E+02 -4.841951330E+02  5.359380304E+02  7.629394531E-06  0.00000E+00  9.000E+00
#rwgt            1          96   3.4239567474109913E-003        6024     3515801           0
<rwgt>
<wgt id='central'>  0.583384083E+01 </wgt>
<wgt id='sudakovwgt'>  0.181671271E+00 </wgt>
<wgt id='scales0.50.5'>  0.776090703E+01 </wgt>
<wgt id='scales0.51.0'>  0.677489586E+01 </wgt>
<wgt id='scales1.00.5'>  0.668289090E+01 </wgt>
<wgt id='scales1.02.0'>  0.513797908E+01 </wgt>
<wgt id='scales2.01.0'>  0.507775821E+01 </wgt>
<wgt id='scales2.02.0'>  0.447208278E+01 </wgt>
</rwgt>
<scales uborns=' 0.163253328E+04'> </scales>
</event>
<event>
      5  10001  5.86002E+03  4.11826E+01  7.29735E-03  1.44060E-01
      21    -1     0     0   511   512  0.000000000E+00  0.000000000E+00  7.278998899E+01  7.278998899E+01  0.000000000E+00  0.00000E+00  9.000E+00
       2    -1     0     0   514     0  0.000000000E+00  0.000000000E+00 -3.208532324E+03  3.208532324E+03  0.000000000E+00  0.00000E+00  9.000E+00
      22     1     1     2     0     0  3.429179058E+02  1.882151904E+02 -1.364044021E+03  1.419025630E+03  1.525878906E-05  0.00000E+00  9.000E+00
      21     1     1     2   514   512 -4.355450187E+02 -1.955950446E+02 -1.400618856E+03  1.479760138E+03  2.642899792E-05  0.00000E+00  9.000E+00
       2     1     1     2   511     0  9.262711288E+01  7.379854154E+00 -3.710794582E+02  3.825365454E+02  5.394796609E-06  0.00000E+00  9.000E+00
#rwgt            1         187   4.0093921700621211E-002        6024     3609450           0
<rwgt>
<wgt id='central'>  0.586002310E+04 </wgt>
<wgt id='sudakovwgt'>  0.104569972E+00 </wgt>
<wgt id='scales0.50.5'>  0.759294686E+04 </wgt>
<wgt id='scales0.51.0'>  0.696896635E+04 </wgt>
<wgt id='scales1.00.5'>  0.638470876E+04 </wgt>
<wgt id='scales1.02.0'>  0.539227651E+04 </wgt>
<wgt id='scales2.01.0'>  0.499876780E+04 </wgt>
<wgt id='scales2.02.0'>  0.459976898E+04 </wgt>
</rwgt>
<scales uborns=' 0.481061120E+03'> </scales>
</event>
<event>
      5  10001  3.73803E+02  4.57212E+00  7.29735E-03  2.50500E-01
       1    -1     0     0   511     0  0.000000000E+00  0.000000000E+00  1.534359198E+03  1.534359198E+03  0.000000000E+00  0.00000E+00  9.000E+00
       1    -1     0     0   512     0  0.000000000E+00  0.000000000E+00 -1.227755455E+03  1.227755455E+03  0.000000000E+00  0.00000E+00  9.000E+00
       1     1     1     2   511     0  7.530949314E+02  1.560626468E+02 -9.085141346E+02  1.190338380E+03  2.412626389E-05  0.00000E+00  9.000E+00
       1     1     1     2   512     0 -7.547037701E+02 -1.517829416E+02  1.287047040E+03  1.499701946E+03  1.525878906E-05  0.00000E+00  9.000E+00
      22     1     1     2     0     0  1.608838676E+00 -4.279705192E+00 -7.192916222E+01  7.207432703E+01  1.651812370E-06  0.00000E+00  9.000E+00
#rwgt            1          91   6.8871962531986681E-004        6024     3610208           0
<rwgt>
<wgt id='central'>  0.373802945E+03 </wgt>
<wgt id='sudakovwgt'>  0.397974175E-01 </wgt>
<wgt id='scales0.50.5'>  0.487872210E+03 </wgt>
<wgt id='scales0.51.0'>  0.440118531E+03 </wgt>
<wgt id='scales1.00.5'>  0.414361320E+03 </wgt>
<wgt id='scales1.02.0'>  0.339439585E+03 </wgt>
<wgt id='scales2.01.0'>  0.321560536E+03 </wgt>
<wgt id='scales2.02.0'>  0.291999729E+03 </wgt>
</rwgt>
<scales uborns=' 0.769452022E+03'> </scales>
</event>
<event>
      5  10001  3.17058E+02  6.89061E+02  7.29735E-03  9.50497E-02
       1    -1     0     0   514     0  0.000000000E+00  0.000000000E+00  3.082463265E+03  3.082463265E+03  0.000000000E+00  0.00000E+00  9.000E+00
      21    -1     0     0   511   514  0.000000000E+00  0.000000000E+00 -2.670901769E+02  2.670901769E+02  0.000000000E+00  0.00000E+00  9.000E+00
      22     1     1     2     0     0  4.521603478E+02 -2.782531736E+02  1.570135572E+03  1.657467805E+03  0.000000000E+00  0.00000E+00  9.000E+00
      21     1     1     2   511   513 -1.450196904E+02  6.205866366E+02  4.744842121E+02  7.945399623E+02  1.868812365E-05  0.00000E+00  9.000E+00
       1     1     1     2   513     0 -3.071406574E+02 -3.423334630E+02  7.707533037E+02  8.975456749E+02  1.078959322E-05  0.00000E+00  9.000E+00
#rwgt            1         181   3.2869930639369735E-003        6024     3616123           0
<rwgt>
<wgt id='central'>  0.317058477E+03 </wgt>
<wgt id='sudakovwgt'>  0.461350103E-03 </wgt>
<wgt id='scales0.50.5'>  0.430651987E+03 </wgt>
<wgt id='scales0.51.0'>  0.373094363E+03 </wgt>
<wgt id='scales1.00.5'>  0.365970840E+03 </wgt>
<wgt id='scales1.02.0'>  0.277117045E+03 </wgt>
<wgt id='scales2.01.0'>  0.272877497E+03 </wgt>
<wgt id='scales2.02.0'>  0.238502122E+03 </wgt>
</rwgt>
<scales uborns=' 0.791685241E+03'> </scales>
</event>
<event>
      5  10001  3.67233E+00  6.38446E+00  7.29735E-03  2.21362E-01
       2    -1     0     0   513     0  0.000000000E+00  0.000000000E+00  3.488208820E+03  3.488208820E+03  0.000000000E+00  0.00000E+00  9.000E+00
      21    -1     0     0   512   514  0.000000000E+00  0.000000000E+00 -9.460944629E+02  9.460944629E+02  0.000000000E+00  0.00000E+00  9.000E+00
       2     1     1     2   512     0 -3.018196244E+02 -1.744843720E+03  1.635983635E+03  2.410812549E+03  3.737624730E-05  0.00000E+00  9.000E+00
      21     1     1     2   513   514  3.018259586E+02  1.762309317E+03  8.819368866E+02  1.993651351E+03  3.236877966E-05  0.00000E+00  9.000E+00
      22     1     1     2     0     0 -6.334179060E-03 -1.746559716E+01  2.419383571E+01  2.983938355E+01  3.371747881E-07  0.00000E+00  9.000E+00
#rwgt            1         182   5.7525808246039339E-003        6024     3616232           0
<rwgt>
<wgt id='central'>  0.367232951E+01 </wgt>
<wgt id='sudakovwgt'>  0.525871956E-02 </wgt>
<wgt id='scales0.50.5'>  0.501173741E+01 </wgt>
<wgt id='scales0.51.0'>  0.425827756E+01 </wgt>
<wgt id='scales1.00.5'>  0.432211226E+01 </wgt>
<wgt id='scales1.02.0'>  0.315431797E+01 </wgt>
<wgt id='scales2.01.0'>  0.320053728E+01 </wgt>
<wgt id='scales2.02.0'>  0.274907545E+01 </wgt>
</rwgt>
<scales uborns=' 0.178847833E+04'> </scales>
</event>
<event>
      5  10001  1.81179E+04  1.84468E+02  7.29735E-03  1.12941E-01
      21    -1     0     0   511   512  0.000000000E+00  0.000000000E+00  3.424919972E+02  3.424919972E+02  0.000000000E+00  0.00000E+00  9.000E+00
       2    -1     0     0   515     0  0.000000000E+00  0.000000000E+00 -3.550924195E+03  3.550924195E+03  0.000000000E+00  0.00000E+00  9.000E+00
       2     1     1     2   511     0  1.377919185E+02 -1.347388441E+02 -2.581600355E+03  2.588783800E+03  3.051757812E-05  0.00000E+00  9.000E+00
      21     1     1     2   515   512 -3.540450612E+02  1.643351352E+02  2.076184137E+02  4.421078463E+02  1.789251617E-05  0.00000E+00  9.000E+00
      22     1     1     2     0     0  2.162531428E+02 -2.959629108E+01 -8.344502564E+02  8.625245461E+02  0.000000000E+00  0.00000E+00  9.000E+00
#rwgt            1         187   2.1018813153857441E-002        6024     3624354           0
<rwgt>
<wgt id='central'>  0.181178782E+05 </wgt>
<wgt id='sudakovwgt'>  0.465061063E-03 </wgt>
<wgt id='scales0.50.5'>  0.252254226E+05 </wgt>
<wgt id='scales0.51.0'>  0.216419883E+05 </wgt>
<wgt id='scales1.00.5'>  0.211178233E+05 </wgt>
<wgt id='scales1.02.0'>  0.157062730E+05 </wgt>
<wgt id='scales2.01.0'>  0.153981134E+05 </wgt>
<wgt id='scales2.02.0'>  0.133485101E+05 </wgt>
</rwgt>
<scales uborns=' 0.397664027E+03'> </scales>
</event>
<event>
      5  10001  3.77143E+02  1.01484E+01  7.29735E-03  1.95020E-01
      -2    -1     0     0     0   513  0.000000000E+00  0.000000000E+00  5.790476441E+02  5.790476441E+02  0.000000000E+00  0.00000E+00  9.000E+00
      21    -1     0     0   513   511  0.000000000E+00  0.000000000E+00 -1.117673867E+03  1.117673867E+03  0.000000000E+00  0.00000E+00  9.000E+00
      -2     1     1     2     0   512 -5.032489223E+02 -5.388684792E+02 -5.115882897E+02  8.974192408E+02  1.945121580E-05  0.00000E+00  9.000E+00
      21     1     1     2   512   511  5.230455559E+02  5.616555827E+02 -1.764091382E+01  7.676879893E+02  1.215700987E-05  0.00000E+00  9.000E+00
      22     1     1     2     0     0 -1.979663365E+01 -2.278710351E+01 -9.397019464E+00  3.161428103E+01  8.429369702E-07  0.00000E+00  9.000E+00
#rwgt            1         192   1.5066201533585772E-004        6024     3624764           0
<rwgt>
<wgt id='central'>  0.377143170E+03 </wgt>
<wgt id='sudakovwgt'>  0.161141486E+00 </wgt>
<wgt id='scales0.50.5'>  0.498040084E+03 </wgt>
<wgt id='scales0.51.0'>  0.444064750E+03 </wgt>
<wgt id='scales1.00.5'>  0.422984106E+03 </wgt>
<wgt id='scales1.02.0'>  0.338724099E+03 </wgt>
<wgt id='scales2.01.0'>  0.324425282E+03 </wgt>
<wgt id='scales2.02.0'>  0.291376643E+03 </wgt>
</rwgt>
<scales uborns=' 0.768269927E+03'> </scales>
</event>
<event>
      5  10001  2.69663E+04  2.79972E+01  7.29735E-03  1.55153E-01
       2    -1     0     0   511     0  0.000000000E+00  0.000000000E+00  1.691238839E+03  1.691238839E+03  0.000000000E+00  0.00000E+00  9.000E+00
      21    -1     0     0   514   515  0.000000000E+00  0.000000000E+00 -4.067211504E+02  4.067211504E+02  0.000000000E+00  0.00000E+00  9.000E+00
       2     1     1     2   514     0  1.241936665E+02 -1.290559179E+02  7.083943682E+02  7.306860322E+02  7.629394531E-06  0.00000E+00  9.000E+00
      21     1     1     2   511   515 -2.516597485E+02  2.737447115E+02 -2.952584044E+02  4.748118801E+02  3.814697266E-06  0.00000E+00  9.000E+00
      22     1     1     2     0     0  1.274660821E+02 -1.446887936E+02  8.713817251E+02  8.924620776E+02  0.000000000E+00  0.00000E+00  9.000E+00
#rwgt            1         182   1.0355425585930042E-002        6024     3626299           0
<rwgt>
<wgt id='central'>  0.269662574E+05 </wgt>
<wgt id='sudakovwgt'>  0.145678031E+00 </wgt>
<wgt id='scales0.50.5'>  0.358827786E+05 </wgt>
<wgt id='scales0.51.0'>  0.322633481E+05 </wgt>
<wgt id='scales1.00.5'>  0.299914866E+05 </wgt>
<wgt id='scales1.02.0'>  0.244008739E+05 </wgt>
<wgt id='scales2.01.0'>  0.228875370E+05 </wgt>
<wgt id='scales2.02.0'>  0.207101420E+05 </wgt>
</rwgt>
<scales uborns=' 0.371932784E+03'> </scales>
</event>
<event>
      5  10001  1.26193E+02  1.56885E+00  7.29735E-03  4.20712E-01
       1    -1     0     0   514     0  0.000000000E+00  0.000000000E+00  1.358425121E+03  1.358425121E+03  0.000000000E+00  0.00000E+00  9.000E+00
      21    -1     0     0   512   513  0.000000000E+00  0.000000000E+00 -8.788747840E+02  8.788747840E+02  0.000000000E+00  0.00000E+00  9.000E+00
       1     1     1     2   512     0 -8.123798073E+02  4.404078794E+02  8.241083050E+02  1.238173877E+03  1.868812365E-05  0.00000E+00  9.000E+00
      21     1     1     2   514   513  8.177156237E+02 -4.420564866E+02 -3.480058186E+02  9.925627578E+02  1.144409180E-05  0.00000E+00  9.000E+00
      22     1     1     2     0     0 -5.335816314E+00  1.648607166E+00  3.447850646E+00  6.563270175E+00  1.397852826E-07  0.00000E+00  9.000E+00
#rwgt            1         181   2.7943212693324433E-003        6024     3629435           0
<rwgt>
<wgt id='central'>  0.126193078E+03 </wgt>
<wgt id='sudakovwgt'>  0.547723591E-01 </wgt>
<wgt id='scales0.50.5'>  0.167888358E+03 </wgt>
<wgt id='scales0.51.0'>  0.148031869E+03 </wgt>
<wgt id='scales1.00.5'>  0.143120097E+03 </wgt>
<wgt id='scales1.02.0'>  0.112182452E+03 </wgt>
<wgt id='scales2.01.0'>  0.108897530E+03 </wgt>
<wgt id='scales2.02.0'>  0.968072073E+02 </wgt>
</rwgt>
<scales uborns=' 0.929642478E+03'> </scales>
</event>
<event>
      5  10001  2.28750E+03  4.68720E+00  7.29735E-03  2.48235E-01
       2    -1     0     0   513     0  0.000000000E+00  0.000000000E+00  1.185101433E+03  1.185101433E+03  0.000000000E+00  0.00000E+00  9.000E+00
      21    -1     0     0   515   513  0.000000000E+00  0.000000000E+00 -4.540218785E+02  4.540218785E+02  0.000000000E+00  0.00000E+00  9.000E+00
       2     1     1     2   511     0  5.443254109E+02  1.464990533E+02  8.820124343E+02  1.046755970E+03  1.078959322E-05  0.00000E+00  9.000E+00
      21     1     1     2   515   511 -5.434091840E+02 -1.484690463E+02 -1.579258895E+02  5.850446013E+02  3.814697266E-06  0.00000E+00  9.000E+00
      22     1     1     2     0     0 -9.162268839E-01  1.969993017E+00  6.993009614E+00  7.322740447E+00  1.192092896E-07  0.00000E+00  9.000E+00
#rwgt            1         182   7.6376546258504242E-003        6024     3630334           0
<rwgt>
<wgt id='central'>  0.228750367E+04 </wgt>
<wgt id='sudakovwgt'>  0.198970714E-02 </wgt>
<wgt id='scales0.50.5'>  0.296751231E+04 </wgt>
<wgt id='scales0.51.0'>  0.271079209E+04 </wgt>
<wgt id='scales1.00.5'>  0.250413318E+04 </wgt>
<wgt id='scales1.02.0'>  0.210012368E+04 </wgt>
<wgt id='scales2.01.0'>  0.195709644E+04 </wgt>
<wgt id='scales2.02.0'>  0.179678451E+04 </wgt>
</rwgt>
<scales uborns=' 0.564221535E+03'> </scales>
</event>
<event>
      5  10001  1.29430E+01  3.97809E+02  7.29735E-03  1.01757E-01
       2    -1     0     0   512     0  0.000000000E+00  0.000000000E+00  3.806851221E+03  3.806851221E+03  0.000000000E+00  0.00000E+00  9.000E+00
       2    -1     0     0   511     0  0.000000000E+00  0.000000000E+00 -9.255501489E+02  9.255501489E+02  0.000000000E+00  0.00000E+00  9.000E+00
       2     1     1     2   512     0  1.293003306E+03  4.795725497E+02 -1.297915301E+02  1.385169023E+03  2.622170846E-05  0.00000E+00  9.000E+00
      22     1     1     2     0     0 -7.064765274E+02 -5.151356158E+02  1.800634938E+03  2.001689278E+03  0.000000000E+00  0.00000E+00  9.000E+00
       2     1     1     2   511     0 -5.865267788E+02  3.556306613E+01  1.210457664E+03  1.345543069E+03  2.157918644E-05  0.00000E+00  9.000E+00
#rwgt            1          97   2.8694675010372066E-003        6024     3637213           0
<rwgt>
<wgt id='central'>  0.129429954E+02 </wgt>
<wgt id='sudakovwgt'>  0.102193369E-02 </wgt>
<wgt id='scales0.50.5'>  0.171243229E+02 </wgt>
<wgt id='scales0.51.0'>  0.150697388E+02 </wgt>
<wgt id='scales1.00.5'>  0.147076279E+02 </wgt>
<wgt id='scales1.02.0'>  0.114847163E+02 </wgt>
<wgt id='scales2.01.0'>  0.112406032E+02 </wgt>
<wgt id='scales2.02.0'>  0.997412805E+01 </wgt>
</rwgt>
<scales uborns=' 0.140250392E+04'> </scales>
</event>
<event>
      4  10001  6.61656E+02  8.94427E-01  7.29735E-03  7.45456E-01
       1    -1     0     0   511     0  0.000000000E+00  0.000000000E+00  6.704069367E+02  6.704069367E+02  0.000000000E+00  0.00000E+00  9.000E+00
      21    -1     0     0   513   512  0.000000000E+00  0.000000000E+00 -7.377557945E+02  7.377557945E+02  0.000000000E+00  0.00000E+00  9.000E+00
       1     1     1     2   513     0 -6.165299107E+02 -3.259021940E+02  5.739809228E+01  6.997255975E+02  1.110119507E-05  0.00000E+00  9.000E+00
      21     1     1     2   511   512  6.165299107E+02  3.259021940E+02 -1.247469501E+02  7.084371337E+02  5.560829062E-06  0.00000E+00  9.000E+00
#rwgt            1         181   1.7614536942506611E-003        6024     3642585           0
<rwgt>
<wgt id='central'>  0.661656472E+03 </wgt>
<wgt id='sudakovwgt'>  0.314300695E+01 </wgt>
<wgt id='scales0.50.5'>  0.859463673E+03 </wgt>
<wgt id='scales0.51.0'>  0.780594525E+03 </wgt>
<wgt id='scales1.00.5'>  0.728507923E+03 </wgt>
<wgt id='scales1.02.0'>  0.604351892E+03 </wgt>
<wgt id='scales2.01.0'>  0.568224125E+03 </wgt>
<wgt id='scales2.02.0'>  0.519011881E+03 </wgt>
</rwgt>
<scales uborns=' 0.697367458E+03'> </scales>
</event>
<event>
      5  10001  7.65138E+02  1.40407E+00  7.29735E-03  4.68442E-01
      21    -1     0     0   514   513  0.000000000E+00  0.000000000E+00  4.393001511E+02  4.393001511E+02  0.000000000E+00  0.00000E+00  9.000E+00
       2    -1     0     0   515     0  0.000000000E+00  0.000000000E+00 -1.194495948E+03  1.194495948E+03  0.000000000E+00  0.00000E+00  9.000E+00
       2     1     1     2   514     0 -5.439770406E+02  3.055679160E+02 -6.035830101E+02  8.680986246E+02  0.000000000E+00  0.00000E+00  9.000E+00
      21     1     1     2   515   513  5.936858478E+02 -3.319481051E+02 -9.661947247E+01  6.870136482E+02  1.355425873E-05  0.00000E+00  9.000E+00
      22     1     1     2     0     0 -4.970880719E+01  2.638018908E+01 -5.499331394E+01  7.868382595E+01  6.743495762E-07  0.00000E+00  9.000E+00
#rwgt            1         187   8.4780378360421547E-003        6024     3643529           0
<rwgt>
<wgt id='central'>  0.765138262E+03 </wgt>
<wgt id='sudakovwgt'>  0.275923266E+00 </wgt>
<wgt id='scales0.50.5'>  0.986426346E+03 </wgt>
<wgt id='scales0.51.0'>  0.903142144E+03 </wgt>
<wgt id='scales1.00.5'>  0.835696005E+03 </wgt>
<wgt id='scales1.02.0'>  0.703912500E+03 </wgt>
<wgt id='scales2.01.0'>  0.656808559E+03 </wgt>
<wgt id='scales2.02.0'>  0.604251462E+03 </wgt>
</rwgt>
<scales uborns=' 0.680192651E+03'> </scales>
</event>
<event>
      5  10001  3.61461E+02  1.89056E+02  7.29735E-03  1.12545E-01
       2    -1     0     0   514     0  0.000000000E+00  0.000000000E+00  9.070568369E+02  9.070568369E+02  0.000000000E+00  0.00000E+00  9.000E+00
      21    -1     0     0   511   512  0.000000000E+00  0.000000000E+00 -1.278324062E+03  1.278324062E+03  0.000000000E+00  0.00000E+00  9.000E+00
      22     1     1     2     0     0  2.471627651E+02  2.588390695E+02  1.974667795E+02  4.087544805E+02  0.000000000E+00  0.00000E+00  9.000E+00
      21     1     1     2   514   512 -4.311765772E+02 -6.376022566E+02 -9.402134923E+02  1.215093120E+03  1.868812365E-05  0.00000E+00  9.000E+00
       2     1     1     2   511     0  1.840138122E+02  3.787631871E+02  3.714794881E+02  5.615332983E+02  5.394796609E-06  0.00000E+00  9.000E+00
#rwgt            1         182   3.5868293179915039E-003        6024     3648238           0
<rwgt>
<wgt id='central'>  0.361461378E+03 </wgt>
<wgt id='sudakovwgt'>  0.508635727E-03 </wgt>
<wgt id='scales0.50.5'>  0.479887544E+03 </wgt>
<wgt id='scales0.51.0'>  0.425537530E+03 </wgt>
<wgt id='scales1.00.5'>  0.407627105E+03 </wgt>
<wgt id='scales1.02.0'>  0.323167782E+03 </wgt>
<wgt id='scales2.01.0'>  0.310974022E+03 </wgt>
<wgt id='scales2.02.0'>  0.278029401E+03 </wgt>
</rwgt>
<scales uborns=' 0.773930798E+03'> </scales>
</event>
<event>
      4  10001  6.15331E+00  8.94427E-01  7.29735E-03  7.52583E-01
      21    -1     0     0   511   513  0.000000000E+00  0.000000000E+00  1.392569957E+03  1.392569957E+03  0.000000000E+00  0.00000E+00  9.000E+00
       1    -1     0     0   515     0  0.000000000E+00  0.000000000E+00 -2.013843503E+03  2.013843503E+03  0.000000000E+00  0.00000E+00  9.000E+00
       1     1     1     2   511     0  9.290072454E+02  1.321932597E+03 -7.584403226E+02  1.784878700E+03  2.412626389E-05  0.00000E+00  9.000E+00
      21     1     1     2   515   513 -9.290072454E+02 -1.321932597E+03  1.371667760E+02  1.621534760E+03  1.662787988E-05  0.00000E+00  9.000E+00
#rwgt            1         186   1.9870490110204669E-003        6024     3648933           0
<rwgt>
<wgt id='central'>  0.615330613E+01 </wgt>
<wgt id='sudakovwgt'>  0.287759314E+01 </wgt>
<wgt id='scales0.50.5'>  0.837494005E+01 </wgt>
<wgt id='scales0.51.0'>  0.714713816E+01 </wgt>
<wgt id='scales1.00.5'>  0.721038284E+01 </wgt>
<wgt id='scales1.02.0'>  0.530777572E+01 </wgt>
<wgt id='scales2.01.0'>  0.535502694E+01 </wgt>
<wgt id='scales2.02.0'>  0.461918577E+01 </wgt>
</rwgt>
<scales uborns=' 0.161572283E+04'> </scales>
</event>
<event>
      5  10001  3.38614E+03  2.44312E+02  7.29735E-03  1.08573E-01
       2    -1     0     0   511     0  0.000000000E+00  0.000000000E+00  1.963116718E+02  1.963116718E+02  0.000000000E+00  0.00000E+00  9.000E+00
       2    -1     0     0   512     0  0.000000000E+00  0.000000000E+00 -2.351118854E+03  2.351118854E+03  0.000000000E+00  0.00000E+00  9.000E+00
       2     1     1     2   512     0  3.498255816E+02 -3.603108301E+02 -1.787801892E+03  1.856996886E+03  2.157918644E-05  0.00000E+00  9.000E+00
       2     1     1     2   511     0 -1.603209934E+02  3.454444899E+02 -3.126392919E+02  4.927251195E+02  5.394796609E-06  0.00000E+00  9.000E+00
      22     1     1     2     0     0 -1.895045881E+02  1.486634024E+01 -5.436599837E+01  1.977085197E+02  4.573661350E-06  0.00000E+00  9.000E+00
#rwgt            1          97   7.1217280273849857E-004        6024     3650927           0
<rwgt>
<wgt id='central'>  0.338613899E+04 </wgt>
<wgt id='sudakovwgt'>  0.171345680E-02 </wgt>
<wgt id='scales0.50.5'>  0.428658300E+04 </wgt>
<wgt id='scales0.51.0'>  0.401858189E+04 </wgt>
<wgt id='scales1.00.5'>  0.361196326E+04 </wgt>
<wgt id='scales1.02.0'>  0.318459224E+04 </wgt>
<wgt id='scales2.01.0'>  0.289350664E+04 </wgt>
<wgt id='scales2.02.0'>  0.272128110E+04 </wgt>
</rwgt>
<scales uborns=' 0.527874034E+03'> </scales>
</event>
<event>
      4  10001  1.81899E+04  8.94427E-01  7.29735E-03  7.48502E-01
       1    -1     0     0   512     0  0.000000000E+00  0.000000000E+00  1.542426280E+03  1.542426280E+03  0.000000000E+00  0.00000E+00  9.000E+00
      21    -1     0     0   513   514  0.000000000E+00  0.000000000E+00 -1.310384379E+02  1.310384379E+02  0.000000000E+00  0.00000E+00  9.000E+00
       1     1     1     2   513     0 -3.322520790E+02  2.180231446E+02  1.096944363E+03  1.166710106E+03  1.525878906E-05  0.00000E+00  9.000E+00
      21     1     1     2   512   514  3.322520790E+02 -2.180231446E+02  3.144434798E+02  5.067546128E+02  1.009274029E-05  0.00000E+00  9.000E+00
#rwgt            1         181   5.3785022479818818E-003        6024     3654211           0
<rwgt>
<wgt id='central'>  0.181899320E+05 </wgt>
<wgt id='sudakovwgt'>  0.182709275E+01 </wgt>
<wgt id='scales0.50.5'>  0.233054851E+05 </wgt>
<wgt id='scales0.51.0'>  0.217283388E+05 </wgt>
<wgt id='scales1.00.5'>  0.195102095E+05 </wgt>
<wgt id='scales1.02.0'>  0.169830288E+05 </wgt>
<wgt id='scales2.01.0'>  0.154590999E+05 </wgt>
<wgt id='scales2.02.0'>  0.144334130E+05 </wgt>
</rwgt>
<scales uborns=' 0.397398459E+03'> </scales>
</event>
<event>
      5  10001  4.81438E+00  1.43476E+02  7.29735E-03  1.17164E-01
       2    -1     0     0   513     0  0.000000000E+00  0.000000000E+00  1.196311428E+03  1.196311428E+03  0.000000000E+00  0.00000E+00  9.000E+00
       2    -1     0     0   511     0  0.000000000E+00  0.000000000E+00 -3.397573665E+03  3.397573665E+03  0.000000000E+00  0.00000E+00  9.000E+00
       2     1     1     2   511     0 -8.725700955E+02 -1.390356203E+03  1.385016627E+02  1.647316501E+03  2.622170846E-05  0.00000E+00  9.000E+00
       2     1     1     2   513     0  8.795160147E+02  1.389902692E+03 -2.387002311E+03  2.898820095E+03  5.285799584E-05  0.00000E+00  9.000E+00
      22     1     1     2     0     0 -6.945919217E+00  4.535112791E-01  4.723841137E+01  4.774849709E+01  1.907348633E-06  0.00000E+00  9.000E+00
#rwgt            1          97   2.4724344826481206E-003        6024     3655374           0
<rwgt>
<wgt id='central'>  0.481437899E+01 </wgt>
<wgt id='sudakovwgt'>  0.127197503E-01 </wgt>
<wgt id='scales0.50.5'>  0.631495984E+01 </wgt>
<wgt id='scales0.51.0'>  0.558749182E+01 </wgt>
<wgt id='scales1.00.5'>  0.544119211E+01 </wgt>
<wgt id='scales1.02.0'>  0.429350670E+01 </wgt>
<wgt id='scales2.01.0'>  0.419267477E+01 </wgt>
<wgt id='scales2.02.0'>  0.373906448E+01 </wgt>
</rwgt>
<scales uborns=' 0.169499800E+04'> </scales>
</event>
<event>
      4  10001  3.38205E+03  8.94427E-01  7.29735E-03  7.43597E-01
      -1    -1     0     0     0   512  0.000000000E+00  0.000000000E+00  2.480239569E+03  2.480239569E+03  0.000000000E+00  0.00000E+00  9.000E+00
      21    -1     0     0   514   513  0.000000000E+00  0.000000000E+00 -3.219392217E+02  3.219392217E+02  0.000000000E+00  0.00000E+00  9.000E+00
      -1     1     1     2     0   513  4.392273778E+01  5.261521589E+02  2.209511415E+03  2.271718732E+03  3.051757812E-05  0.00000E+00  9.000E+00
      21     1     1     2   514   512 -4.392273778E+01 -5.261521589E+02 -5.121106763E+01  5.304600595E+02  1.757195070E-05  0.00000E+00  9.000E+00
#rwgt            1         191   2.2092217793836543E-004        6024     3669683           0
<rwgt>
<wgt id='central'>  0.338204658E+04 </wgt>
<wgt id='sudakovwgt'>  0.155528161E+01 </wgt>
<wgt id='scales0.50.5'>  0.438144856E+04 </wgt>
<wgt id='scales0.51.0'>  0.401370982E+04 </wgt>
<wgt id='scales1.00.5'>  0.369191565E+04 </wgt>
<wgt id='scales1.02.0'>  0.311170695E+04 </wgt>
<wgt id='scales2.01.0'>  0.289002265E+04 </wgt>
<wgt id='scales2.02.0'>  0.265900964E+04 </wgt>
</rwgt>
<scales uborns=' 0.527982293E+03'> </scales>
</event>
<event>
      5  10001  2.05711E+05  2.54215E+01  7.29735E-03  1.58209E-01
       2    -1     0     0   513     0  0.000000000E+00  0.000000000E+00  3.759724947E+03  3.759724947E+03  0.000000000E+00  0.00000E+00  9.000E+00
       4    -1     0     0   511     0  0.000000000E+00  0.000000000E+00 -1.885701826E+02  1.885701826E+02  0.000000000E+00  0.00000E+00  9.000E+00
       2     1     1     2   511     0 -1.624708098E+02  5.529677868E+01  2.283861756E+03  2.290301076E+03  3.051757812E-05  0.00000E+00  9.000E+00
       4     1     1     2   513     0  2.420815531E+02 -1.063855101E+02 -8.858335720E+01  2.788698017E+02  1.225016840E-05  0.00000E+00  9.000E+00
      22     1     1     2     0     0 -7.961074330E+01  5.108873142E+01  1.375876366E+03  1.379124252E+03  0.000000000E+00  0.00000E+00  9.000E+00
#rwgt            1         107   7.4474578044989568E-004        6024     3670737           0
<rwgt>
<wgt id='central'>  0.205710711E+06 </wgt>
<wgt id='sudakovwgt'>  0.233106303E-02 </wgt>
<wgt id='scales0.50.5'>  0.266187083E+06 </wgt>
<wgt id='scales0.51.0'>  0.248266237E+06 </wgt>
<wgt id='scales1.00.5'>  0.220560040E+06 </wgt>
<wgt id='scales1.02.0'>  0.191449010E+06 </wgt>
<wgt id='scales2.01.0'>  0.173344873E+06 </wgt>
<wgt id='scales2.02.0'>  0.161326834E+06 </wgt>
</rwgt>
<scales uborns=' 0.264526996E+03'> </scales>
</event>
<event>
      5  10001  4.85121E+05  4.17013E+00  7.29735E-03  2.59279E-01
      21    -1     0     0   511   514  0.000000000E+00  0.000000000E+00  1.308734191E+02  1.308734191E+02  0.000000000E+00  0.00000E+00  9.000E+00
       2    -1     0     0   514     0  0.000000000E+00  0.000000000E+00 -2.431724109E+03  2.431724109E+03  0.000000000E+00  0.00000E+00  9.000E+00
       2     1     1     2   512     0  2.309097876E+02  5.181092475E+00 -1.778209696E+03  1.793146925E+03  2.157918644E-05  0.00000E+00  9.000E+00
      21     1     1     2   511   512 -2.272429512E+02 -7.167125523E+00  1.867214100E+01  2.281214050E+02  3.910355441E-06  0.00000E+00  9.000E+00
      22     1     1     2     0     0 -3.666836415E+00  1.986033047E+00 -5.413131349E+02  5.413291974E+02  7.629394531E-06  0.00000E+00  9.000E+00
#rwgt            1         187   1.5946074165379149E-002        6024     3673135           0
<rwgt>
<wgt id='central'>  0.485120692E+06 </wgt>
<wgt id='sudakovwgt'>  0.459945853E-01 </wgt>
<wgt id='scales0.50.5'>  0.629967276E+06 </wgt>
<wgt id='scales0.51.0'>  0.587779300E+06 </wgt>
<wgt id='scales1.00.5'>  0.519940656E+06 </wgt>
<wgt id='scales1.02.0'>  0.453035049E+06 </wgt>
<wgt id='scales2.01.0'>  0.407475698E+06 </wgt>
<wgt id='scales2.02.0'>  0.380525215E+06 </wgt>
</rwgt>
<scales uborns=' 0.229158047E+03'> </scales>
</event>
<event>
      5  10001  2.26990E+01  3.93973E+01  7.29735E-03  1.45250E-01
      21    -1     0     0   513   514  0.000000000E+00  0.000000000E+00  1.117010718E+03  1.117010718E+03  0.000000000E+00  0.00000E+00  9.000E+00
       2    -1     0     0   512     0  0.000000000E+00  0.000000000E+00 -1.430712353E+03  1.430712353E+03  0.000000000E+00  0.00000E+00  9.000E+00
       2     1     1     2   513     0 -2.535494100E+02  5.468688771E+02 -1.030014934E+02  6.115244718E+02  8.844011779E-06  0.00000E+00  9.000E+00
      21     1     1     2   512   514  5.476632363E+02 -1.138828967E+03 -1.332658113E+02  1.270679429E+03  1.907348633E-06  0.00000E+00  9.000E+00
      22     1     1     2     0     0 -2.941138263E+02  5.919600897E+02 -7.743433039E+01  6.655191704E+02  1.194950493E-05  0.00000E+00  9.000E+00
#rwgt            1         187   3.8864839572056173E-003        6024     3674977           0
<rwgt>
<wgt id='central'>  0.226989808E+02 </wgt>
<wgt id='sudakovwgt'>  0.114483733E-02 </wgt>
<wgt id='scales0.50.5'>  0.299733510E+02 </wgt>
<wgt id='scales0.51.0'>  0.264770490E+02 </wgt>
<wgt id='scales1.00.5'>  0.256964095E+02 </wgt>
<wgt id='scales1.02.0'>  0.202163566E+02 </wgt>
<wgt id='scales2.01.0'>  0.196826535E+02 </wgt>
<wgt id='scales2.02.0'>  0.175299150E+02 </wgt>
</rwgt>
<scales uborns=' 0.126395197E+04'> </scales>
</event>
<event>
      5  10001  1.20147E+01  3.25505E+01  7.29735E-03  1.50618E-01
       2    -1     0     0   515     0  0.000000000E+00  0.000000000E+00  2.869359211E+03  2.869359211E+03  0.000000000E+00  0.00000E+00  9.000E+00
      21    -1     0     0   511   513  0.000000000E+00  0.000000000E+00 -7.131708307E+02  7.131708307E+02  0.000000000E+00  0.00000E+00  9.000E+00
       2     1     1     2   511     0 -6.471315039E+02 -1.203094499E+03  8.397218737E+02  1.603542448E+03  3.051757812E-05  0.00000E+00  9.000E+00
      21     1     1     2   515   513  6.452672406E+02  1.262638210E+03  1.266960888E+03  1.901529635E+03  2.642899792E-05  0.00000E+00  9.000E+00
      22     1     1     2     0     0  1.864263321E+00 -5.954371169E+01  4.950561872E+01  7.745795869E+01  1.651812370E-06  0.00000E+00  9.000E+00
#rwgt            1         182   4.8361333837998420E-003        6024     3676004           0
<rwgt>
<wgt id='central'>  0.120146916E+02 </wgt>
<wgt id='sudakovwgt'>  0.142923125E-02 </wgt>
<wgt id='scales0.50.5'>  0.161058546E+02 </wgt>
<wgt id='scales0.51.0'>  0.139855300E+02 </wgt>
<wgt id='scales1.00.5'>  0.138362302E+02 </wgt>
<wgt id='scales1.02.0'>  0.105294556E+02 </wgt>
<wgt id='scales2.01.0'>  0.104365593E+02 </wgt>
<wgt id='scales2.02.0'>  0.914640305E+01 </wgt>
</rwgt>
<scales uborns=' 0.142220665E+04'> </scales>
</event>
<event>
      4  10001  7.32993E+04  8.94427E-01  7.29735E-03  7.50329E-01
      21    -1     0     0   511   514  0.000000000E+00  0.000000000E+00  4.603828335E+02  4.603828335E+02  0.000000000E+00  0.00000E+00  9.000E+00
       2    -1     0     0   514     0  0.000000000E+00  0.000000000E+00 -2.444663524E+02  2.444663524E+02  0.000000000E+00  0.00000E+00  9.000E+00
       2     1     1     2   512     0  1.903396754E+02 -2.503003693E+02 -1.485914075E+01  3.148019393E+02  3.450897891E-06  0.00000E+00  9.000E+00
      21     1     1     2   511   512 -1.903396754E+02  2.503003693E+02  2.307756219E+02  3.900472466E+02  3.814697266E-06  0.00000E+00  9.000E+00
#rwgt            1         187   2.3445355969504964E-003        6024     3679006           0
<rwgt>
<wgt id='central'>  0.732993193E+05 </wgt>
<wgt id='sudakovwgt'>  0.316779870E+02 </wgt>
<wgt id='scales0.50.5'>  0.926693238E+05 </wgt>
<wgt id='scales0.51.0'>  0.880643953E+05 </wgt>
<wgt id='scales1.00.5'>  0.771321548E+05 </wgt>
<wgt id='scales1.02.0'>  0.697221317E+05 </wgt>
<wgt id='scales2.01.0'>  0.619972928E+05 </wgt>
<wgt id='scales2.02.0'>  0.589716875E+05 </wgt>
</rwgt>
<scales uborns=' 0.314451056E+03'> </scales>
</event>
<event>
      4  10001  6.38058E+01  8.94427E-01  7.29735E-03  7.51835E-01
      21    -1     0     0   513   514  0.000000000E+00  0.000000000E+00  7.648892218E+02  7.648892218E+02  0.000000000E+00  0.00000E+00  9.000E+00
       2    -1     0     0   512     0  0.000000000E+00  0.000000000E+00 -1.926119046E+03  1.926119046E+03  0.000000000E+00  0.00000E+00  9.000E+00
       2     1     1     2   513     0 -6.082309262E+02 -8.544228314E+02 -1.257888533E+03  1.637762741E+03  0.000000000E+00  0.00000E+00  9.000E+00
      21     1     1     2   512   514  6.082309262E+02  8.544228314E+02  9.665870851E+01  1.053245527E+03  1.035955476E-05  0.00000E+00  9.000E+00
#rwgt            1         187   1.0882774511698367E-002        6024     3683822           0
<rwgt>
<wgt id='central'>  0.638058062E+02 </wgt>
<wgt id='sudakovwgt'>  0.290643749E+02 </wgt>
<wgt id='scales0.50.5'>  0.846010988E+02 </wgt>
<wgt id='scales0.51.0'>  0.746781847E+02 </wgt>
<wgt id='scales1.00.5'>  0.722840387E+02 </wgt>
<wgt id='scales1.02.0'>  0.567754133E+02 </wgt>
<wgt id='scales2.01.0'>  0.551673453E+02 </wgt>
<wgt id='scales2.02.0'>  0.490887793E+02 </wgt>
</rwgt>
<scales uborns=' 0.104880086E+04'> </scales>
</event>
<event>
      5  10001  6.16217E+05  1.53843E+01  7.29735E-03  1.76354E-01
       1    -1     0     0   513     0  0.000000000E+00  0.000000000E+00  2.758419326E+02  2.758419326E+02  0.000000000E+00  0.00000E+00  9.000E+00
       2    -1     0     0   511     0  0.000000000E+00  0.000000000E+00 -7.879538013E+02  7.879538013E+02  0.000000000E+00  0.00000E+00  9.000E+00
       1     1     1     2   511     0 -1.699237654E+02  1.383742752E+02  2.117875365E+02  3.047547977E+02  4.672030912E-06  0.00000E+00  9.000E+00
       2     1     1     2   513     0  1.747692254E+02 -1.333435733E+02 -6.817141544E+02  7.162813546E+02  7.629394531E-06  0.00000E+00  9.000E+00
      22     1     1     2     0     0 -4.845459936E+00 -5.030701920E+00 -4.218525074E+01  4.275958166E+01  6.743495762E-07  0.00000E+00  9.000E+00
#rwgt            1          96   5.2036383023541517E-004        6024     3690272           0
<rwgt>
<wgt id='central'>  0.616216981E+06 </wgt>
<wgt id='sudakovwgt'>  0.147065890E-02 </wgt>
<wgt id='scales0.50.5'>  0.766313888E+06 </wgt>
<wgt id='scales0.51.0'>  0.747456387E+06 </wgt>
<wgt id='scales1.00.5'>  0.631763476E+06 </wgt>
<wgt id='scales1.02.0'>  0.600503347E+06 </wgt>
<wgt id='scales2.01.0'>  0.517112429E+06 </wgt>
<wgt id='scales2.02.0'>  0.503925962E+06 </wgt>
</rwgt>
<scales uborns=' 0.220174248E+03'> </scales>
</event>
<event>
      5  10001  9.62719E+02  9.30741E+00  7.29735E-03  1.99430E-01
      21    -1     0     0   512   511  0.000000000E+00  0.000000000E+00  8.930965978E+02  8.930965978E+02  0.000000000E+00  0.00000E+00  9.000E+00
       2    -1     0     0   514     0  0.000000000E+00  0.000000000E+00 -4.933280057E+02  4.933280057E+02  0.000000000E+00  0.00000E+00  9.000E+00
       2     1     1     2   512     0 -3.640433889E+02  5.116783758E+02  3.076266547E+02  6.992685521E+02  1.868812365E-05  0.00000E+00  9.000E+00
      21     1     1     2   514   511  3.859983438E+02 -5.269313504E+02  8.098080970E+01  6.581863422E+02  2.523185073E-06  0.00000E+00  9.000E+00
      22     1     1     2     0     0 -2.195495488E+01  1.525297463E+01  1.116112763E+01  2.896970916E+01  5.591411304E-07  0.00000E+00  9.000E+00
#rwgt            1         187   1.1316272485475348E-003        6024     3726216           0
<rwgt>
<wgt id='central'>  0.962718630E+03 </wgt>
<wgt id='sudakovwgt'>  0.262643191E-02 </wgt>
<wgt id='scales0.50.5'>  0.124304915E+04 </wgt>
<wgt id='scales0.51.0'>  0.113728895E+04 </wgt>
<wgt id='scales1.00.5'>  0.105224537E+04 </wgt>
<wgt id='scales1.02.0'>  0.885442517E+03 </wgt>
<wgt id='scales2.01.0'>  0.825846008E+03 </wgt>
<wgt id='scales2.02.0'>  0.759556182E+03 </wgt>
</rwgt>
<scales uborns=' 0.653947700E+03'> </scales>
</event>
<event>
      5  10001  1.14914E+02  6.76964E+00  7.29735E-03  2.17628E-01
       1    -1     0     0   515     0  0.000000000E+00  0.000000000E+00  9.934675241E+02  9.934675241E+02  0.000000000E+00  0.00000E+00  9.000E+00
      21    -1     0     0   513   512  0.000000000E+00  0.000000000E+00 -1.053280439E+03  1.053280439E+03  0.000000000E+00  0.00000E+00  9.000E+00
       1     1     1     2   513     0 -5.569853658E+01 -6.805711300E+02  2.565751776E+02  7.294588485E+02  2.054277346E-05  0.00000E+00  9.000E+00
      21     1     1     2   515   512  7.981300604E+01  9.416695346E+02 -4.215178193E+02  1.034789302E+03  1.868812365E-05  0.00000E+00  9.000E+00
      22     1     1     2     0     0 -2.411446946E+01 -2.610984046E+02  1.051297266E+02  2.824998123E+02  3.303624740E-06  0.00000E+00  9.000E+00
#rwgt            1         181   2.0634337157626730E-003        6024     3727814           0
<rwgt>
<wgt id='central'>  0.114914103E+03 </wgt>
<wgt id='sudakovwgt'>  0.368440579E-01 </wgt>
<wgt id='scales0.50.5'>  0.152106795E+03 </wgt>
<wgt id='scales0.51.0'>  0.134758619E+03 </wgt>
<wgt id='scales1.00.5'>  0.129707476E+03 </wgt>
<wgt id='scales1.02.0'>  0.102623169E+03 </wgt>
<wgt id='scales2.01.0'>  0.991908442E+02 </wgt>
<wgt id='scales2.02.0'>  0.885817115E+02 </wgt>
</rwgt>
<scales uborns=' 0.945072537E+03'> </scales>
</event>
<event>
      5  10001  7.72716E+01  6.17685E+01  7.29735E-03  1.34033E-01
       2    -1     0     0   512     0  0.000000000E+00  0.000000000E+00  1.635152458E+03  1.635152458E+03  0.000000000E+00  0.00000E+00  9.000E+00
       3    -1     0     0   511     0  0.000000000E+00  0.000000000E+00 -6.285349210E+02  6.285349210E+02  0.000000000E+00  0.00000E+00  9.000E+00
       2     1     1     2   511     0 -4.363939823E+02 -2.552126172E+02  2.578384940E+02  5.674979091E+02  1.078959322E-05  0.00000E+00  9.000E+00
       3     1     1     2   512     0  9.014391302E+02  4.616427019E+02  5.165393103E+02  1.136890210E+03  7.629394531E-06  0.00000E+00  9.000E+00
      22     1     1     2     0     0 -4.650451479E+02 -2.064300847E+02  2.322397330E+02  5.592992607E+02  6.607249480E-06  0.00000E+00  9.000E+00
#rwgt            1         102   1.6979655191225426E-004        6024     3728251           0
<rwgt>
<wgt id='central'>  0.772715714E+02 </wgt>
<wgt id='sudakovwgt'>  0.129521685E-02 </wgt>
<wgt id='scales0.50.5'>  0.967548666E+02 </wgt>
<wgt id='scales0.51.0'>  0.904959061E+02 </wgt>
<wgt id='scales1.00.5'>  0.826159290E+02 </wgt>
<wgt id='scales1.02.0'>  0.724585154E+02 </wgt>
<wgt id='scales2.01.0'>  0.667739859E+02 </wgt>
<wgt id='scales2.02.0'>  0.626147754E+02 </wgt>
</rwgt>
<scales uborns=' 0.101370592E+04'> </scales>
</event>
<event>
      5  10001  1.56726E+03  1.09161E+02  7.29735E-03  1.22139E-01
      21    -1     0     0   513   511  0.000000000E+00  0.000000000E+00  2.027650116E+03  2.027650116E+03  0.000000000E+00  0.00000E+00  9.000E+00
       2    -1     0     0   514     0  0.000000000E+00  0.000000000E+00 -2.968499993E+02  2.968499993E+02  0.000000000E+00  0.00000E+00  9.000E+00
       2     1     1     2   513     0 -1.066914472E+02  6.291769441E+02  8.281771549E+02  1.045525749E+03  1.525878906E-05  0.00000E+00  9.000E+00
      21     1     1     2   514   511  1.737991595E+02 -5.430797655E+02  9.877648872E+02  1.140535511E+03  2.157918644E-05  0.00000E+00  9.000E+00
      22     1     1     2     0     0 -6.710771231E+01 -8.609717866E+01 -8.514192529E+01  1.384388553E+02  4.672030912E-06  0.00000E+00  9.000E+00
#rwgt            1         187   4.8066173953916614E-004        6024     3730502           0
<rwgt>
<wgt id='central'>  0.156726480E+04 </wgt>
<wgt id='sudakovwgt'>  0.211572379E-01 </wgt>
<wgt id='scales0.50.5'>  0.208489783E+04 </wgt>
<wgt id='scales0.51.0'>  0.185470548E+04 </wgt>
<wgt id='scales1.00.5'>  0.176177674E+04 </wgt>
<wgt id='scales1.02.0'>  0.140520860E+04 </wgt>
<wgt id='scales2.01.0'>  0.134244944E+04 </wgt>
<wgt id='scales2.02.0'>  0.120364299E+04 </wgt>
</rwgt>
<scales uborns=' 0.601728686E+03'> </scales>
</event>
<event>
      5  10001  1.57574E+06  7.30653E+00  7.29735E-03  2.12956E-01
      21    -1     0     0   512   515  0.000000000E+00  0.000000000E+00  5.512183819E+02  5.512183819E+02  0.000000000E+00  0.00000E+00  9.000E+00
       2    -1     0     0   511     0  0.000000000E+00  0.000000000E+00 -1.581409950E+02  1.581409950E+02  0.000000000E+00  0.00000E+00  9.000E+00
      22     1     1     2     0     0  5.569654519E+00  3.121489502E+01 -1.187910357E+01  3.386006237E+01  3.769728732E-07  0.00000E+00  9.000E+00
      21     1     1     2   511   515 -3.728205023E+01 -1.844695809E+02  4.698019024E+02  5.060956481E+02  7.629394531E-06  0.00000E+00  9.000E+00
       2     1     1     2   512     0  3.171239571E+01  1.532546859E+02 -6.484541191E+01  1.694036665E+02  3.303624740E-06  0.00000E+00  9.000E+00
#rwgt            1         187   1.8592818024542337E-003        6024     3730721           0
<rwgt>
<wgt id='central'>  0.157574455E+07 </wgt>
<wgt id='sudakovwgt'>  0.724561105E-03 </wgt>
<wgt id='scales0.50.5'>  0.201526857E+07 </wgt>
<wgt id='scales0.51.0'>  0.192003602E+07 </wgt>
<wgt id='scales1.00.5'>  0.165389569E+07 </wgt>
<wgt id='scales1.02.0'>  0.150135759E+07 </wgt>
<wgt id='scales2.01.0'>  0.131741449E+07 </wgt>
<wgt id='scales2.02.0'>  0.125522627E+07 </wgt>
</rwgt>
<scales uborns=' 0.188204978E+03'> </scales>
</event>
<event>
      5  10001  8.20089E-01  4.45030E+03  7.29735E-03  7.77274E-02
       1    -1     0     0   513     0  0.000000000E+00  0.000000000E+00  2.249630564E+03  2.249630564E+03  0.000000000E+00  0.00000E+00  9.000E+00
       2    -1     0     0   512     0  0.000000000E+00  0.000000000E+00 -2.730506531E+03  2.730506531E+03  0.000000000E+00  0.00000E+00  9.000E+00
      22     1     1     2     0     0 -2.911260499E+02 -6.314620931E+01 -2.836100685E+02  4.113106997E+02  5.394796609E-06  0.00000E+00  9.000E+00
       2     1     1     2   513     0 -2.068619154E+03  5.631930123E+02  4.630426600E+01  2.144414992E+03  3.524081462E-05  0.00000E+00  9.000E+00
       1     1     1     2   512     0  2.359745204E+03 -5.000468030E+02 -2.435701644E+02  2.424411404E+03  6.607249480E-06  0.00000E+00  9.000E+00
#rwgt            1          96   9.4753971111091327E-004        6024     3731830           0
<rwgt>
<wgt id='central'>  0.820088885E+00 </wgt>
<wgt id='sudakovwgt'>  0.400000000E-03 </wgt>
<wgt id='scales0.50.5'>  0.109126873E+01 </wgt>
<wgt id='scales0.51.0'>  0.946152051E+00 </wgt>
<wgt id='scales1.00.5'>  0.945870678E+00 </wgt>
<wgt id='scales1.02.0'>  0.717472963E+00 </wgt>
<wgt id='scales2.01.0'>  0.717848705E+00 </wgt>
<wgt id='scales2.02.0'>  0.628025785E+00 </wgt>
</rwgt>
<scales uborns=' 0.246114553E+04'> </scales>
</event>
<event>
      5  10001  2.55571E+00  5.82722E+02  7.29735E-03  9.69990E-02
       2    -1     0     0   512     0  0.000000000E+00  0.000000000E+00  3.353100274E+03  3.353100274E+03  0.000000000E+00  0.00000E+00  9.000E+00
       1    -1     0     0   511     0  0.000000000E+00  0.000000000E+00 -2.325500432E+03  2.325500432E+03  0.000000000E+00  0.00000E+00  9.000E+00
      22     1     1     2     0     0  2.556468520E-01  2.714350004E+01  5.023487477E+01  5.709971622E+01  9.536743164E-07  0.00000E+00  9.000E+00
       1     1     1     2   512     0  3.538972258E+02 -1.891539122E+03 -1.542988565E+03  2.466571955E+03  2.157918644E-05  0.00000E+00  9.000E+00
       2     1     1     2   511     0 -3.541528726E+02  1.864395622E+03  2.520353532E+03  3.154929036E+03  0.000000000E+00  0.00000E+00  9.000E+00
#rwgt            1          92   4.1412281231632868E-002        6024     3731882           0
<rwgt>
<wgt id='central'>  0.255570515E+01 </wgt>
<wgt id='sudakovwgt'>  0.548388340E-03 </wgt>
<wgt id='scales0.50.5'>  0.348335236E+01 </wgt>
<wgt id='scales0.51.0'>  0.295995951E+01 </wgt>
<wgt id='scales1.00.5'>  0.300762170E+01 </wgt>
<wgt id='scales1.02.0'>  0.219499599E+01 </wgt>
<wgt id='scales2.01.0'>  0.222966010E+01 </wgt>
<wgt id='scales2.02.0'>  0.191496491E+01 </wgt>
</rwgt>
<scales uborns=' 0.192473329E+04'> </scales>
</event>
<event>
      5  10001  2.68409E+03  8.08265E+00  7.29735E-03  2.07088E-01
      -1    -1     0     0     0   513  0.000000000E+00  0.000000000E+00  8.946634408E+02  8.946634408E+02  0.000000000E+00  0.00000E+00  9.000E+00
      -2    -1     0     0     0   512  0.000000000E+00  0.000000000E+00 -4.399195213E+02  4.399195213E+02  0.000000000E+00  0.00000E+00  9.000E+00
      -1     1     1     2     0   512 -2.965879730E+02  4.644349057E+02  5.410806385E+02  7.722904018E+02  0.000000000E+00  0.00000E+00  9.000E+00
      -2     1     1     2     0   513  2.885202673E+02 -4.649262062E+02 -8.254988660E+01  5.533667913E+02  1.471257078E-05  0.00000E+00  9.000E+00
      22     1     1     2     0     0  8.067705712E+00  4.913005324E-01 -3.786832483E+00  8.925768983E+00  1.460009660E-07  0.00000E+00  9.000E+00
#rwgt            1         121   3.7286719885649432E-005        6024     3734271           0
<rwgt>
<wgt id='central'>  0.268408945E+04 </wgt>
<wgt id='sudakovwgt'>  0.510102089E-01 </wgt>
<wgt id='scales0.50.5'>  0.340712701E+04 </wgt>
<wgt id='scales0.51.0'>  0.318265066E+04 </wgt>
<wgt id='scales1.00.5'>  0.287340224E+04 </wgt>
<wgt id='scales1.02.0'>  0.251489901E+04 </wgt>
<wgt id='scales2.01.0'>  0.229526269E+04 </wgt>
<wgt id='scales2.02.0'>  0.215058133E+04 </wgt>
</rwgt>
<scales uborns=' 0.549101989E+03'> </scales>
</event>
<event>
      5  10001  4.39709E+01  2.03888E+01  7.29735E-03  1.65682E-01
      21    -1     0     0   514   513  0.000000000E+00  0.000000000E+00  1.048825145E+03  1.048825145E+03  0.000000000E+00  0.00000E+00  9.000E+00
       2    -1     0     0   513     0  0.000000000E+00  0.000000000E+00 -1.991444719E+03  1.991444719E+03  0.000000000E+00  0.00000E+00  9.000E+00
       2     1     1     2   511     0 -1.109873431E+03 -5.023195850E+01 -9.531159273E+02  1.463821114E+03  4.448663250E-05  0.00000E+00  9.000E+00
      21     1     1     2   514   511  1.129848535E+03  5.431830271E+01  3.899241233E+02  1.196473573E+03  2.642899792E-05  0.00000E+00  9.000E+00
      22     1     1     2     0     0 -1.997510360E+01 -4.086344211E+00 -3.794277696E+02  3.799751773E+02  5.394796609E-06  0.00000E+00  9.000E+00
#rwgt            1         187   8.2263535657914472E-003        6024     3737089           0
<rwgt>
<wgt id='central'>  0.439709306E+02 </wgt>
<wgt id='sudakovwgt'>  0.641921679E-01 </wgt>
<wgt id='scales0.50.5'>  0.584074401E+02 </wgt>
<wgt id='scales0.51.0'>  0.514003821E+02 </wgt>
<wgt id='scales1.00.5'>  0.499651482E+02 </wgt>
<wgt id='scales1.02.0'>  0.390276440E+02 </wgt>
<wgt id='scales2.01.0'>  0.380575861E+02 </wgt>
<wgt id='scales2.02.0'>  0.337791112E+02 </wgt>
</rwgt>
<scales uborns=' 0.112104677E+04'> </scales>
</event>
<event>
      5  10001  2.35778E+02  1.76644E+02  7.29735E-03  1.13647E-01
      21    -1     0     0   512   513  0.000000000E+00  0.000000000E+00  2.488090076E+02  2.488090076E+02  0.000000000E+00  0.00000E+00  9.000E+00
       2    -1     0     0   511     0  0.000000000E+00  0.000000000E+00 -3.070333996E+03  3.070333996E+03  0.000000000E+00  0.00000E+00  9.000E+00
      22     1     1     2     0     0 -1.297796683E+02 -1.083777667E+02 -3.206146259E+02  3.624668825E+02  6.607249480E-06  0.00000E+00  9.000E+00
      21     1     1     2   511   513  5.709549735E+02  6.043264213E+02 -9.086733720E+02  1.231619788E+03  1.525878906E-05  0.00000E+00  9.000E+00
       2     1     1     2   512     0 -4.411753052E+02 -4.959486546E+02 -1.592236991E+03  1.725056333E+03  3.051757812E-05  0.00000E+00  9.000E+00
#rwgt            1         187   1.7529929331411287E-002        6024     3738352           0
<rwgt>
<wgt id='central'>  0.235777643E+03 </wgt>
<wgt id='sudakovwgt'>  0.152539205E-02 </wgt>
<wgt id='scales0.50.5'>  0.312191211E+03 </wgt>
<wgt id='scales0.51.0'>  0.277167395E+03 </wgt>
<wgt id='scales1.00.5'>  0.265571711E+03 </wgt>
<wgt id='scales1.02.0'>  0.210735195E+03 </wgt>
<wgt id='scales2.01.0'>  0.203098203E+03 </wgt>
<wgt id='scales2.02.0'>  0.181526434E+03 </wgt>
</rwgt>
<scales uborns=' 0.833444162E+03'> </scales>
</event>
<event>
      5  10001  5.84882E+03  8.79780E+01  7.29735E-03  1.26382E-01
      -2    -1     0     0     0   514  0.000000000E+00  0.000000000E+00  5.784810533E+02  5.784810533E+02  0.000000000E+00  0.00000E+00  9.000E+00
      21    -1     0     0   512   513  0.000000000E+00  0.000000000E+00 -1.002694512E+03  1.002694512E+03  0.000000000E+00  0.00000E+00  9.000E+00
      22     1     1     2     0     0  1.728244944E+01 -1.496043789E+01  2.417015305E+01  3.326701157E+01  6.743495762E-07  0.00000E+00  9.000E+00
      21     1     1     2   512   514 -3.952035526E+02  2.743999162E+02 -8.247282883E+02  9.548077877E+02  1.868812365E-05  0.00000E+00  9.000E+00
      -2     1     1     2     0   513  3.779211032E+02 -2.594394783E+02  3.763446765E+02  5.931007660E+02  1.868812365E-05  0.00000E+00  9.000E+00
#rwgt            1         192   5.2165385455124732E-004        6024     3738834           0
<rwgt>
<wgt id='central'>  0.584881684E+04 </wgt>
<wgt id='sudakovwgt'>  0.883748530E-03 </wgt>
<wgt id='scales0.50.5'>  0.779975352E+04 </wgt>
<wgt id='scales0.51.0'>  0.695559593E+04 </wgt>
<wgt id='scales1.00.5'>  0.655865505E+04 </wgt>
<wgt id='scales1.02.0'>  0.525388888E+04 </wgt>
<wgt id='scales2.01.0'>  0.498924447E+04 </wgt>
<wgt id='scales2.02.0'>  0.448174778E+04 </wgt>
</rwgt>
<scales uborns=' 0.481216836E+03'> </scales>
</event>
<event>
      4  10001  2.79310E+03  8.94427E-01  7.29735E-03  7.49004E-01
       1    -1     0     0   515     0  0.000000000E+00  0.000000000E+00  3.080873141E+02  3.080873141E+02  0.000000000E+00  0.00000E+00  9.000E+00
      21    -1     0     0   511   513  0.000000000E+00  0.000000000E+00 -1.533338785E+03  1.533338785E+03  0.000000000E+00  0.00000E+00  9.000E+00
       1     1     1     2   511     0 -3.067860123E+02 -4.509396853E+02 -1.172912512E+03  1.293517691E+03  1.525878906E-05  0.00000E+00  9.000E+00
      21     1     1     2   515   513  3.067860123E+02  4.509396853E+02 -5.233895946E+01  5.479084083E+02  1.217569860E-05  0.00000E+00  9.000E+00
#rwgt            1         181   8.9757629459458774E-005        6024     3739302           0
<rwgt>
<wgt id='central'>  0.279310388E+04 </wgt>
<wgt id='sudakovwgt'>  0.230870172E+01 </wgt>
<wgt id='scales0.50.5'>  0.371147119E+04 </wgt>
<wgt id='scales0.51.0'>  0.331239844E+04 </wgt>
<wgt id='scales1.00.5'>  0.312960846E+04 </wgt>
<wgt id='scales1.02.0'>  0.251170678E+04 </wgt>
<wgt id='scales2.01.0'>  0.238818456E+04 </wgt>
<wgt id='scales2.02.0'>  0.214758489E+04 </wgt>
</rwgt>
<scales uborns=' 0.545402839E+03'> </scales>
</event>
<event>
      5  10001  7.77297E+01  4.41316E+02  7.29735E-03  1.00417E-01
       2    -1     0     0   512     0  0.000000000E+00  0.000000000E+00  6.923953207E+02  6.923953207E+02  0.000000000E+00  0.00000E+00  9.000E+00
      -2    -1     0     0     0   512  0.000000000E+00  0.000000000E+00 -1.481400559E+03  1.481400559E+03  0.000000000E+00  0.00000E+00  9.000E+00
       2     1     1     2   514     0 -9.120442190E+02  4.399154301E+02 -3.769327927E+02  1.080476086E+03  1.078959322E-05  0.00000E+00  9.000E+00
      22     1     1     2     0     0  6.935008605E-01 -6.521680578E-01 -7.520617968E-01  1.213203843E+00  2.580956828E-08  0.00000E+00  9.000E+00
      -2     1     1     2     0   514  9.113507181E+02 -4.392632620E+02 -4.113203840E+02  1.092106590E+03  2.288818359E-05  0.00000E+00  9.000E+00
#rwgt            1          47   8.2415547569558858E-005        6024     3740344           0
<rwgt>
<wgt id='central'>  0.777296771E+02 </wgt>
<wgt id='sudakovwgt'>  0.357160871E-04 </wgt>
<wgt id='scales0.50.5'>  0.986766570E+02 </wgt>
<wgt id='scales0.51.0'>  0.910341915E+02 </wgt>
<wgt id='scales1.00.5'>  0.842552322E+02 </wgt>
<wgt id='scales1.02.0'>  0.720186643E+02 </wgt>
<wgt id='scales2.01.0'>  0.671687297E+02 </wgt>
<wgt id='scales2.02.0'>  0.622336404E+02 </wgt>
</rwgt>
<scales uborns=' 0.101264373E+04'> </scales>
</event>
<event>
      5  10001  1.00551E+05  6.76242E+00  7.29735E-03  2.17695E-01
       1    -1     0     0   513     0  0.000000000E+00  0.000000000E+00  3.229093024E+02  3.229093024E+02  0.000000000E+00  0.00000E+00  9.000E+00
      21    -1     0     0   511   512  0.000000000E+00  0.000000000E+00 -8.830304833E+02  8.830304833E+02  0.000000000E+00  0.00000E+00  9.000E+00
       1     1     1     2   511     0 -2.758990091E+02  1.040023522E+02  1.801238978E+02  3.455160938E+02  0.000000000E+00  0.00000E+00  9.000E+00
      21     1     1     2   513   512  2.820961346E+02 -1.067090041E+02 -7.715457768E+02  8.284008247E+02  1.078959322E-05  0.00000E+00  9.000E+00
      22     1     1     2     0     0 -6.197125536E+00  2.706651834E+00  3.130069806E+01  3.202286727E+01  0.000000000E+00  0.00000E+00  9.000E+00
#rwgt            1         181   1.2191564126989413E-003        6024     3744807           0
<rwgt>
<wgt id='central'>  0.100551267E+06 </wgt>
<wgt id='sudakovwgt'>  0.227943359E-01 </wgt>
<wgt id='scales0.50.5'>  0.132096982E+06 </wgt>
<wgt id='scales0.51.0'>  0.120969876E+06 </wgt>
<wgt id='scales1.00.5'>  0.109799927E+06 </wgt>
<wgt id='scales1.02.0'>  0.925177676E+05 </wgt>
<wgt id='scales2.01.0'>  0.849514190E+05 </wgt>
<wgt id='scales2.02.0'>  0.781644701E+05 </wgt>
</rwgt>
<scales uborns=' 0.298220588E+03'> </scales>
</event>
<event>
      5  10001  4.09918E+01  4.29918E+02  7.29735E-03  1.00752E-01
       2    -1     0     0   511     0  0.000000000E+00  0.000000000E+00  2.955408746E+03  2.955408746E+03  0.000000000E+00  0.00000E+00  9.000E+00
      21    -1     0     0   514   515  0.000000000E+00  0.000000000E+00 -7.057534346E+02  7.057534346E+02  0.000000000E+00  0.00000E+00  9.000E+00
       2     1     1     2   514     0  2.561641290E+02 -7.411911913E+02 -2.393705802E+02  8.199284833E+02  1.009274029E-05  0.00000E+00  9.000E+00
      21     1     1     2   511   515 -1.447565262E+02  1.033294509E+03  2.073686447E+03  2.321384819E+03  3.051757812E-05  0.00000E+00  9.000E+00
      22     1     1     2     0     0 -1.114076028E+02 -2.921033182E+02  4.153394447E+02  5.198488788E+02  1.078959322E-05  0.00000E+00  9.000E+00
#rwgt            1         182   1.0982282699359455E-003        6024     3745094           0
<rwgt>
<wgt id='central'>  0.409917801E+02 </wgt>
<wgt id='sudakovwgt'>  0.762703868E-03 </wgt>
<wgt id='scales0.50.5'>  0.554433998E+02 </wgt>
<wgt id='scales0.51.0'>  0.479068940E+02 </wgt>
<wgt id='scales1.00.5'>  0.474404531E+02 </wgt>
<wgt id='scales1.02.0'>  0.357658455E+02 </wgt>
<wgt id='scales2.01.0'>  0.354860895E+02 </wgt>
<wgt id='scales2.02.0'>  0.309620459E+02 </wgt>
</rwgt>
<scales uborns=' 0.113528742E+04'> </scales>
</event>
<event>
      5  10001  2.15144E+03  1.26983E+01  7.29735E-03  1.84482E-01
       2    -1     0     0   513     0  0.000000000E+00  0.000000000E+00  2.063898667E+03  2.063898667E+03  0.000000000E+00  0.00000E+00  9.000E+00
       1    -1     0     0   512     0  0.000000000E+00  0.000000000E+00 -2.231851499E+03  2.231851499E+03  0.000000000E+00  0.00000E+00  9.000E+00
       2     1     1     2   512     0  1.541209406E+01 -5.698534492E+02  1.986472614E+03  2.066650414E+03  3.737624730E-05  0.00000E+00  9.000E+00
       1     1     1     2   513     0 -2.431308824E+01  5.272509924E+02 -2.019125216E+03  2.086971819E+03  2.157918644E-05  0.00000E+00  9.000E+00
      22     1     1     2     0     0  8.900994182E+00  4.260245689E+01 -1.353002305E+02  1.421279332E+02  3.303624740E-06  0.00000E+00  9.000E+00
#rwgt            1          92   4.5583953481613494E-003        6024     3745468           0
<rwgt>
<wgt id='central'>  0.215143783E+04 </wgt>
<wgt id='sudakovwgt'>  0.482267187E-04 </wgt>
<wgt id='scales0.50.5'>  0.295287469E+04 </wgt>
<wgt id='scales0.51.0'>  0.254897903E+04 </wgt>
<wgt id='scales1.00.5'>  0.249234405E+04 </wgt>
<wgt id='scales1.02.0'>  0.187704709E+04 </wgt>
<wgt id='scales2.01.0'>  0.184103830E+04 </wgt>
<wgt id='scales2.02.0'>  0.160623377E+04 </wgt>
</rwgt>
<scales uborns=' 0.570135045E+03'> </scales>
</event>
<event>
      5  10001  4.55064E+01  8.47532E+01  7.29735E-03  1.27148E-01
       2    -1     0     0   512     0  0.000000000E+00  0.000000000E+00  5.727517959E+02  5.727517959E+02  0.000000000E+00  0.00000E+00  9.000E+00
       1    -1     0     0   511     0  0.000000000E+00  0.000000000E+00 -2.167756354E+03  2.167756354E+03  0.000000000E+00  0.00000E+00  9.000E+00
       2     1     1     2   511     0 -1.046942256E+03 -2.618340059E+02 -7.911810879E+02  1.338137754E+03  1.868812365E-05  0.00000E+00  9.000E+00
       1     1     1     2   512     0  1.055839529E+03  3.032858999E+02 -8.016204387E+02  1.359917195E+03  3.051757812E-05  0.00000E+00  9.000E+00
      22     1     1     2     0     0 -8.897273417E+00 -4.145189401E+01 -2.203031761E+00  4.245320177E+01  1.245294953E-06  0.00000E+00  9.000E+00
#rwgt            1          92   5.0051518140829441E-004        6024     3778328           0
<rwgt>
<wgt id='central'>  0.455063981E+02 </wgt>
<wgt id='sudakovwgt'>  0.722742702E-03 </wgt>
<wgt id='scales0.50.5'>  0.581918841E+02 </wgt>
<wgt id='scales0.51.0'>  0.532013219E+02 </wgt>
<wgt id='scales1.00.5'>  0.497751383E+02 </wgt>
<wgt id='scales1.02.0'>  0.418262602E+02 </wgt>
<wgt id='scales2.01.0'>  0.393828024E+02 </wgt>
<wgt id='scales2.02.0'>  0.361978829E+02 </wgt>
</rwgt>
<scales uborns=' 0.111415424E+04'> </scales>
</event>
<event>
      5  10001  7.67720E+04  1.32436E+01  7.29735E-03  1.82635E-01
      21    -1     0     0   511   514  0.000000000E+00  0.000000000E+00  1.974003179E+02  1.974003179E+02  0.000000000E+00  0.00000E+00  9.000E+00
       2    -1     0     0   514     0  0.000000000E+00  0.000000000E+00 -7.890859357E+02  7.890859357E+02  0.000000000E+00  0.00000E+00  9.000E+00
      22     1     1     2     0     0 -5.931985657E+00 -4.821703264E+01 -9.435191630E+01  1.061242423E+02  1.348699152E-06  0.00000E+00  9.000E+00
      21     1     1     2   511   513  5.072430977E+01  3.078525033E+02  6.198430072E+00  3.120649610E+02  6.483495064E-06  0.00000E+00  9.000E+00
       2     1     1     2   513     0 -4.479232411E+01 -2.596354706E+02 -5.035321315E+02  5.682970503E+02  7.629394531E-06  0.00000E+00  9.000E+00
#rwgt            1         187   8.4389067497310302E-003        6024     3808271           0
<rwgt>
<wgt id='central'>  0.767719611E+05 </wgt>
<wgt id='sudakovwgt'>  0.105647825E+00 </wgt>
<wgt id='scales0.50.5'>  0.965668729E+05 </wgt>
<wgt id='scales0.51.0'>  0.922548668E+05 </wgt>
<wgt id='scales1.00.5'>  0.803603346E+05 </wgt>
<wgt id='scales1.02.0'>  0.733075855E+05 </wgt>
<wgt id='scales2.01.0'>  0.649239001E+05 </wgt>
<wgt id='scales2.02.0'>  0.619941431E+05 </wgt>
</rwgt>
<scales uborns=' 0.312019735E+03'> </scales>
</event>
<event>
      5  10001  3.33574E+01  1.65440E+02  7.29735E-03  1.14732E-01
       2    -1     0     0   511     0  0.000000000E+00  0.000000000E+00  5.466576027E+02  5.466576027E+02  0.000000000E+00  0.00000E+00  9.000E+00
      21    -1     0     0   513   511  0.000000000E+00  0.000000000E+00 -2.885203616E+03  2.885203616E+03  0.000000000E+00  0.00000E+00  9.000E+00
       2     1     1     2   512     0  1.117966900E+03  1.796246237E+02 -6.795492894E+02  1.320568904E+03  1.705984480E-05  0.00000E+00  9.000E+00
      21     1     1     2   513   512 -1.126982716E+03 -1.177295292E+02 -1.695192331E+03  2.039026073E+03  2.157918644E-05  0.00000E+00  9.000E+00
      22     1     1     2     0     0  9.015816500E+00 -6.189509455E+01  3.619560763E+01  7.226624169E+01  1.507891493E-06  0.00000E+00  9.000E+00
#rwgt            1         182   5.7390373095969149E-004        6024     3809321           0
<rwgt>
<wgt id='central'>  0.333574257E+02 </wgt>
<wgt id='sudakovwgt'>  0.730368151E-03 </wgt>
<wgt id='scales0.50.5'>  0.464200453E+02 </wgt>
<wgt id='scales0.51.0'>  0.389583180E+02 </wgt>
<wgt id='scales1.00.5'>  0.397463776E+02 </wgt>
<wgt id='scales1.02.0'>  0.284209363E+02 </wgt>
<wgt id='scales2.01.0'>  0.288937167E+02 </wgt>
<wgt id='scales2.02.0'>  0.246178204E+02 </wgt>
</rwgt>
<scales uborns=' 0.117834017E+04'> </scales>
</event>
<event>
      5  10001  1.22200E+01  6.12406E+02  7.29735E-03  9.64127E-02
      21    -1     0     0   512   513  0.000000000E+00  0.000000000E+00  4.882171494E+02  4.882171494E+02  0.000000000E+00  0.00000E+00  9.000E+00
       2    -1     0     0   513     0  0.000000000E+00  0.000000000E+00 -4.291675820E+03  4.291675820E+03  0.000000000E+00  0.00000E+00  9.000E+00
       2     1     1     2   514     0 -1.011211762E+03  4.639238371E+02 -2.458010865E+03  2.698071898E+03  3.051757812E-05  0.00000E+00  9.000E+00
      21     1     1     2   512   514  9.507613626E+02 -7.801358900E+02 -1.231141912E+03  1.740192398E+03  1.525878906E-05  0.00000E+00  9.000E+00
      22     1     1     2     0     0  6.045039916E+01  3.162120529E+02 -1.143058940E+02  3.416286735E+02  4.672030912E-06  0.00000E+00  9.000E+00
#rwgt            1         187   2.0455711111953094E-002        6024     3810262           0
<rwgt>
<wgt id='central'>  0.122200247E+02 </wgt>
<wgt id='sudakovwgt'>  0.592286579E-01 </wgt>
<wgt id='scales0.50.5'>  0.167976436E+02 </wgt>
<wgt id='scales0.51.0'>  0.142252877E+02 </wgt>
<wgt id='scales1.00.5'>  0.144297402E+02 </wgt>
<wgt id='scales1.02.0'>  0.104625225E+02 </wgt>
<wgt id='scales2.01.0'>  0.106143935E+02 </wgt>
<wgt id='scales2.02.0'>  0.908783397E+01 </wgt>
</rwgt>
<scales uborns=' 0.141769093E+04'> </scales>
</event>
<event>
      4  10001  4.58804E+02  8.94427E-01  7.29735E-03  7.51712E-01
      21    -1     0     0   511   513  0.000000000E+00  0.000000000E+00  1.797953119E+02  1.797953119E+02  0.000000000E+00  0.00000E+00  9.000E+00
       1    -1     0     0   514     0  0.000000000E+00  0.000000000E+00 -3.173528575E+03  3.173528575E+03  0.000000000E+00  0.00000E+00  9.000E+00
       1     1     1     2   511     0 -1.848898489E+02 -7.193318431E+02 -1.802526679E+03  1.949544815E+03  2.157918644E-05  0.00000E+00  9.000E+00
      21     1     1     2   514   513  1.848898489E+02  7.193318431E+02 -1.191206584E+03  1.403779072E+03  1.525878906E-05  0.00000E+00  9.000E+00
#rwgt            1         186   2.4861827245627466E-003        6024     3810916           0
<rwgt>
<wgt id='central'>  0.458803810E+03 </wgt>
<wgt id='sudakovwgt'>  0.185622053E+01 </wgt>
<wgt id='scales0.50.5'>  0.617835865E+03 </wgt>
<wgt id='scales0.51.0'>  0.540583898E+03 </wgt>
<wgt id='scales1.00.5'>  0.524369237E+03 </wgt>
<wgt id='scales1.02.0'>  0.404489267E+03 </wgt>
<wgt id='scales2.01.0'>  0.394444294E+03 </wgt>
<wgt id='scales2.02.0'>  0.347748675E+03 </wgt>
</rwgt>
<scales uborns=' 0.742712971E+03'> </scales>
</event>
<event>
      5  10001  4.71784E-01  1.21895E+01  7.29735E-03  1.86315E-01
       2    -1     0     0   512     0  0.000000000E+00  0.000000000E+00  2.291875461E+03  2.291875461E+03  0.000000000E+00  0.00000E+00  9.000E+00
       2    -1     0     0   511     0  0.000000000E+00  0.000000000E+00 -4.401770547E+03  4.401770547E+03  0.000000000E+00  0.00000E+00  9.000E+00
       2     1     1     2   512     0 -1.949280972E+03 -2.021596937E+03 -2.618075535E+03  3.839384064E+03  4.315837288E-05  0.00000E+00  9.000E+00
       2     1     1     2   511     0  1.810996337E+03  1.879835645E+03  4.839091631E+02  2.654742523E+03  5.501634637E-05  0.00000E+00  9.000E+00
      22     1     1     2     0     0  1.382846351E+02  1.417612916E+02  2.427128616E+01  1.995194212E+02  3.946529712E-06  0.00000E+00  9.000E+00
#rwgt            1          97   1.2636531198915004E-002        6024     3812654           0
<rwgt>
<wgt id='central'>  0.471784104E+00 </wgt>
<wgt id='sudakovwgt'>  0.907395888E-01 </wgt>
<wgt id='scales0.50.5'>  0.642413028E+00 </wgt>
<wgt id='scales0.51.0'>  0.543226143E+00 </wgt>
<wgt id='scales1.00.5'>  0.557926366E+00 </wgt>
<wgt id='scales1.02.0'>  0.403351845E+00 </wgt>
<wgt id='scales2.01.0'>  0.413677342E+00 </wgt>
<wgt id='scales2.02.0'>  0.353673544E+00 </wgt>
</rwgt>
<scales uborns=' 0.280844041E+04'> </scales>
</event>
<event>
      4  10001  8.35593E+04  8.94427E-01  7.29735E-03  7.50793E-01
      21    -1     0     0   513   514  0.000000000E+00  0.000000000E+00  1.273847143E+02  1.273847143E+02  0.000000000E+00  0.00000E+00  9.000E+00
       2    -1     0     0   512     0  0.000000000E+00  0.000000000E+00 -2.449882268E+03  2.449882268E+03  0.000000000E+00  0.00000E+00  9.000E+00
       2     1     1     2   513     0  2.762923230E+02 -1.352480728E+02 -2.236911011E+03  2.257963764E+03  3.051757812E-05  0.00000E+00  9.000E+00
      21     1     1     2   512   514 -2.762923230E+02  1.352480728E+02 -8.558654286E+01  3.193032184E+02  6.810596875E-06  0.00000E+00  9.000E+00
#rwgt            1         187   1.8443292957553252E-002        6024     3882820           0
<rwgt>
<wgt id='central'>  0.835593033E+05 </wgt>
<wgt id='sudakovwgt'>  0.704538209E+01 </wgt>
<wgt id='scales0.50.5'>  0.109441402E+06 </wgt>
<wgt id='scales0.51.0'>  0.100447450E+06 </wgt>
<wgt id='scales1.00.5'>  0.910411060E+05 </wgt>
<wgt id='scales1.02.0'>  0.769048827E+05 </wgt>
<wgt id='scales2.01.0'>  0.706424838E+05 </wgt>
<wgt id='scales2.02.0'>  0.650167238E+05 </wgt>
</rwgt>
<scales uborns=' 0.307619065E+03'> </scales>
</event>
<event>
      5  10001  1.75602E+04  1.15382E+00  7.29735E-03  5.58563E-01
      -3    -1     0     0     0   511  0.000000000E+00  0.000000000E+00  2.059820898E+02  2.059820898E+02  0.000000000E+00  0.00000E+00  9.000E+00
      21    -1     0     0   513   514  0.000000000E+00  0.000000000E+00 -7.960614054E+02  7.960614054E+02  0.000000000E+00  0.00000E+00  9.000E+00
      -3     1     1     2     0   514  2.794341543E+02  2.863557112E+02 -2.634094299E+02  4.790277316E+02  1.009274029E-05  0.00000E+00  9.000E+00
      21     1     1     2   513   511 -2.796225828E+02 -2.852173814E+02 -3.308673194E+02  5.186626327E+02  9.344061824E-06  0.00000E+00  9.000E+00
      22     1     1     2     0     0  1.884284729E-01 -1.138329712E+00  4.197433663E+00  4.353130963E+00  1.332800375E-07  0.00000E+00  9.000E+00
#rwgt            1         193   3.2892193844819028E-004        6024     3888072           0
<rwgt>
<wgt id='central'>  0.175601693E+05 </wgt>
<wgt id='sudakovwgt'>  0.317046011E-01 </wgt>
<wgt id='scales0.50.5'>  0.223467412E+05 </wgt>
<wgt id='scales0.51.0'>  0.209731822E+05 </wgt>
<wgt id='scales1.00.5'>  0.187102387E+05 </wgt>
<wgt id='scales1.02.0'>  0.164968221E+05 </wgt>
<wgt id='scales2.01.0'>  0.149256923E+05 </wgt>
<wgt id='scales2.02.0'>  0.140218500E+05 </wgt>
</rwgt>
<scales uborns=' 0.399762358E+03'> </scales>
</event>
<event>
      5  10001  3.74539E+03  1.01397E+00  7.29735E-03  6.41722E-01
      -2    -1     0     0     0   512  0.000000000E+00  0.000000000E+00  1.329631470E+03  1.329631470E+03  0.000000000E+00  0.00000E+00  9.000E+00
      21    -1     0     0   511   515  0.000000000E+00  0.000000000E+00 -2.642368550E+02  2.642368550E+02  0.000000000E+00  0.00000E+00  9.000E+00
      -2     1     1     2     0   515 -4.488425063E+02  2.604142974E+02  8.365251935E+02  9.844031700E+02  1.868812365E-05  0.00000E+00  9.000E+00
      21     1     1     2   511   512  4.493683005E+02 -2.595473043E+02  1.634964686E+02  5.440843389E+02  1.595802358E-05  0.00000E+00  9.000E+00
      22     1     1     2     0     0 -5.257941153E-01 -8.669930550E-01  6.537295241E+01  6.538081556E+01  9.536743164E-07  0.00000E+00  9.000E+00
#rwgt            1         192   5.4198277991288795E-004        6024     3888485           0
<rwgt>
<wgt id='central'>  0.374538978E+04 </wgt>
<wgt id='sudakovwgt'>  0.194601712E+00 </wgt>
<wgt id='scales0.50.5'>  0.486867195E+04 </wgt>
<wgt id='scales0.51.0'>  0.444661170E+04 </wgt>
<wgt id='scales1.00.5'>  0.410089220E+04 </wgt>
<wgt id='scales1.02.0'>  0.343417024E+04 </wgt>
<wgt id='scales2.01.0'>  0.319947550E+04 </wgt>
<wgt id='scales2.02.0'>  0.293361801E+04 </wgt>
</rwgt>
<scales uborns=' 0.518927432E+03'> </scales>
</event>
<event>
      5  10001  5.52932E+02  1.88666E+01  7.29735E-03  1.68487E-01
       2    -1     0     0   514     0  0.000000000E+00  0.000000000E+00  2.120482326E+03  2.120482326E+03  0.000000000E+00  0.00000E+00  9.000E+00
       1    -1     0     0   513     0  0.000000000E+00  0.000000000E+00 -9.934145259E+02  9.934145259E+02  0.000000000E+00  0.00000E+00  9.000E+00
       2     1     1     2   513     0  2.785325277E+02  6.570892118E+02  6.774609985E+02  9.840223604E+02  1.525878906E-05  0.00000E+00  9.000E+00
       1     1     1     2   514     0 -2.687273636E+02 -6.732077504E+02 -6.836897154E+02  9.964209442E+02  1.525878906E-05  0.00000E+00  9.000E+00
      22     1     1     2     0     0 -9.805164024E+00  1.611853851E+01  1.133296517E+03  1.133453547E+03  0.000000000E+00  0.00000E+00  9.000E+00
#rwgt            1          92   1.4713882444117698E-003        6024     3892867           0
<rwgt>
<wgt id='central'>  0.552931587E+03 </wgt>
<wgt id='sudakovwgt'>  0.899879929E-01 </wgt>
<wgt id='scales0.50.5'>  0.698585626E+03 </wgt>
<wgt id='scales0.51.0'>  0.651914841E+03 </wgt>
<wgt id='scales1.00.5'>  0.592516573E+03 </wgt>
<wgt id='scales1.02.0'>  0.517974309E+03 </wgt>
<wgt id='scales2.01.0'>  0.475106239E+03 </wgt>
<wgt id='scales2.02.0'>  0.445068880E+03 </wgt>
</rwgt>
<scales uborns=' 0.719221367E+03'> </scales>
</event>
<event>
      5  10001  3.72637E+03  4.36390E+01  7.29735E-03  1.42533E-01
      21    -1     0     0   512   513  0.000000000E+00  0.000000000E+00  4.452137312E+02  4.452137312E+02  0.000000000E+00  0.00000E+00  9.000E+00
      -2    -1     0     0     0   511  0.000000000E+00  0.000000000E+00 -6.569657923E+02  6.569657923E+02  0.000000000E+00  0.00000E+00  9.000E+00
      -2     1     1     2     0   513 -2.529105243E+01  3.489422951E+02 -2.073763165E+02  4.067005032E+02  7.136645101E-06  0.00000E+00  9.000E+00
      21     1     1     2   512   511  2.566628006E+01 -5.168678231E+02  4.761071610E+01  5.196901815E+02  8.971637593E-06  0.00000E+00  9.000E+00
      22     1     1     2     0     0 -3.752276253E-01  1.679255280E+02 -5.198646074E+01  1.757888388E+02  1.507891493E-06  0.00000E+00  9.000E+00
#rwgt            1         197   7.2515026401908734E-004        6024     3909782           0
<rwgt>
<wgt id='central'>  0.372637483E+04 </wgt>
<wgt id='sudakovwgt'>  0.102615432E-02 </wgt>
<wgt id='scales0.50.5'>  0.481723263E+04 </wgt>
<wgt id='scales0.51.0'>  0.442394611E+04 </wgt>
<wgt id='scales1.00.5'>  0.405764237E+04 </wgt>
<wgt id='scales1.02.0'>  0.343628841E+04 </wgt>
<wgt id='scales2.01.0'>  0.318327887E+04 </wgt>
<wgt id='scales2.02.0'>  0.293547455E+04 </wgt>
</rwgt>
<scales uborns=' 0.519375249E+03'> </scales>
</event>
<event>
      5  10001  3.59164E+01  4.72624E+01  7.29735E-03  1.40485E-01
       2    -1     0     0   511     0  0.000000000E+00  0.000000000E+00  2.290556673E+03  2.290556673E+03  0.000000000E+00  0.00000E+00  9.000E+00
       1    -1     0     0   514     0  0.000000000E+00  0.000000000E+00 -2.740820197E+03  2.740820197E+03  0.000000000E+00  0.00000E+00  9.000E+00
       2     1     1     2   514     0  1.087690096E+03  4.433113304E+02  1.939413886E+03  2.267359897E+03  4.315837288E-05  0.00000E+00  9.000E+00
       1     1     1     2   511     0 -1.075943907E+03 -4.300122196E+02 -2.445139819E+03  2.705785382E+03  3.051757812E-05  0.00000E+00  9.000E+00
      22     1     1     2     0     0 -1.174618869E+01 -1.329911071E+01  5.546240994E+01  5.823159118E+01  1.651812370E-06  0.00000E+00  9.000E+00
#rwgt            1          92   9.4418202563734024E-002        6024     3910511           0
<rwgt>
<wgt id='central'>  0.359164134E+02 </wgt>
<wgt id='sudakovwgt'>  0.436638246E+00 </wgt>
<wgt id='scales0.50.5'>  0.491727872E+02 </wgt>
<wgt id='scales0.51.0'>  0.419571317E+02 </wgt>
<wgt id='scales1.00.5'>  0.420931895E+02 </wgt>
<wgt id='scales1.02.0'>  0.309789265E+02 </wgt>
<wgt id='scales2.01.0'>  0.311038681E+02 </wgt>
<wgt id='scales2.02.0'>  0.268279795E+02 </wgt>
</rwgt>
<scales uborns=' 0.116268611E+04'> </scales>
</event>
<event>
      5  10001  4.27805E+01  4.66215E+00  7.29735E-03  2.48719E-01
       1    -1     0     0   513     0  0.000000000E+00  0.000000000E+00  1.906712747E+03  1.906712747E+03  0.000000000E+00  0.00000E+00  9.000E+00
       2    -1     0     0   512     0  0.000000000E+00  0.000000000E+00 -3.648942095E+03  3.648942095E+03  0.000000000E+00  0.00000E+00  9.000E+00
       1     1     1     2   512     0 -5.683915532E+02 -9.726896376E+02  1.640582561E+03  1.990152062E+03  2.157918644E-05  0.00000E+00  9.000E+00
       2     1     1     2   513     0  5.127331076E+02  8.732670660E+02 -3.052241895E+03  3.215846886E+03  7.475249459E-05  0.00000E+00  9.000E+00
      22     1     1     2     0     0  5.565844565E+01  9.942257158E+01 -3.305700145E+02  3.496558948E+02  3.814697266E-06  0.00000E+00  9.000E+00
#rwgt            1          96   7.4599996108243832E-002        6024     3925002           0
<rwgt>
<wgt id='central'>  0.427805260E+02 </wgt>
<wgt id='sudakovwgt'>  0.141111363E-01 </wgt>
<wgt id='scales0.50.5'>  0.591110519E+02 </wgt>
<wgt id='scales0.51.0'>  0.500043432E+02 </wgt>
<wgt id='scales1.00.5'>  0.505716143E+02 </wgt>
<wgt id='scales1.02.0'>  0.366092987E+02 </wgt>
<wgt id='scales2.01.0'>  0.370301190E+02 </wgt>
<wgt id='scales2.02.0'>  0.316884255E+02 </wgt>
</rwgt>
<scales uborns=' 0.112659322E+04'> </scales>
</event>
<event>
      5  10001  3.73055E+03  2.73055E+01  7.29735E-03  1.55934E-01
      21    -1     0     0   511   512  0.000000000E+00  0.000000000E+00  2.447415933E+02  2.447415933E+02  0.000000000E+00  0.00000E+00  9.000E+00
       1    -1     0     0   514     0  0.000000000E+00  0.000000000E+00 -1.150903768E+03  1.150903768E+03  0.000000000E+00  0.00000E+00  9.000E+00
      22     1     1     2     0     0 -3.375274478E+01  2.748011619E-02 -2.189166135E+01  4.023050301E+01  4.768371582E-07  0.00000E+00  9.000E+00
      21     1     1     2   514   512  5.190926775E+02  1.290724544E+01 -5.972407001E+02  7.914039794E+02  1.078959322E-05  0.00000E+00  9.000E+00
       1     1     1     2   511     0 -4.853399328E+02 -1.293472556E+01 -2.870298129E+02  5.640108784E+02  6.607249480E-06  0.00000E+00  9.000E+00
#rwgt            1         186   1.7293074251235065E-003        6024     4009793           0
<rwgt>
<wgt id='central'>  0.373054558E+04 </wgt>
<wgt id='sudakovwgt'>  0.327392109E-01 </wgt>
<wgt id='scales0.50.5'>  0.478683361E+04 </wgt>
<wgt id='scales0.51.0'>  0.442892722E+04 </wgt>
<wgt id='scales1.00.5'>  0.403201977E+04 </wgt>
<wgt id='scales1.02.0'>  0.346220208E+04 </wgt>
<wgt id='scales2.01.0'>  0.318683842E+04 </wgt>
<wgt id='scales2.02.0'>  0.295760106E+04 </wgt>
</rwgt>
<scales uborns=' 0.519276795E+03'> </scales>
</event>
<event>
      5  10001  2.35947E+02  6.00401E+01  7.29735E-03  1.34688E-01
       2    -1     0     0   513     0  0.000000000E+00  0.000000000E+00  8.936019197E+02  8.936019197E+02  0.000000000E+00  0.00000E+00  9.000E+00
       2    -1     0     0   511     0  0.000000000E+00  0.000000000E+00 -1.598029947E+03  1.598029947E+03  0.000000000E+00  0.00000E+00  9.000E+00
       2     1     1     2   511     0 -6.631939726E+02  5.533184568E+02  4.571052782E+02  9.772066287E+02  1.868812365E-05  0.00000E+00  9.000E+00
       2     1     1     2   513     0  6.161692352E+02 -5.159890197E+02 -7.524180891E+02  1.100927870E+03  2.642899792E-05  0.00000E+00  9.000E+00
      22     1     1     2     0     0  4.702473734E+01 -3.732943710E+01 -4.091152169E+02  4.134973681E+02  9.344061824E-06  0.00000E+00  9.000E+00
#rwgt            1          97   1.5306505632911097E-003        6024     4010125           0
<rwgt>
<wgt id='central'>  0.235947282E+03 </wgt>
<wgt id='sudakovwgt'>  0.471651755E-01 </wgt>
<wgt id='scales0.50.5'>  0.295030845E+03 </wgt>
<wgt id='scales0.51.0'>  0.277366743E+03 </wgt>
<wgt id='scales1.00.5'>  0.250973286E+03 </wgt>
<wgt id='scales1.02.0'>  0.222543869E+03 </wgt>
<wgt id='scales2.01.0'>  0.203243356E+03 </wgt>
<wgt id='scales2.02.0'>  0.191697978E+03 </wgt>
</rwgt>
<scales uborns=' 0.833339926E+03'> </scales>
</event>
<event>
      4  10001  4.58911E+03  8.94427E-01  7.29735E-03  7.37295E-01
      21    -1     0     0   511   514  0.000000000E+00  0.000000000E+00  4.157500443E+02  4.157500443E+02  0.000000000E+00  0.00000E+00  9.000E+00
       1    -1     0     0   514     0  0.000000000E+00  0.000000000E+00 -7.451271964E+02  7.451271964E+02  0.000000000E+00  0.00000E+00  9.000E+00
       1     1     1     2   512     0 -7.211572515E+01 -4.961610115E+02 -4.167285516E+02  6.519502380E+02  9.344061824E-06  0.00000E+00  9.000E+00
      21     1     1     2   511   512  7.211572515E+01  4.961610115E+02  8.735139949E+01  5.089270028E+02  5.560829062E-06  0.00000E+00  9.000E+00
#rwgt            1         186   3.6006024097322647E-003        6024     4027956           0
<rwgt>
<wgt id='central'>  0.458910660E+04 </wgt>
<wgt id='sudakovwgt'>  0.150639458E+01 </wgt>
<wgt id='scales0.50.5'>  0.591394728E+04 </wgt>
<wgt id='scales0.51.0'>  0.545247317E+04 </wgt>
<wgt id='scales1.00.5'>  0.497751272E+04 </wgt>
<wgt id='scales1.02.0'>  0.424802627E+04 </wgt>
<wgt id='scales2.01.0'>  0.391769852E+04 </wgt>
<wgt id='scales2.02.0'>  0.362651717E+04 </wgt>
</rwgt>
<scales uborns=' 0.501374538E+03'> </scales>
</event>
<event>
      5  10001  3.69998E+03  1.16695E+02  7.29735E-03  1.20885E-01
      21    -1     0     0   501   511  0.000000000E+00  0.000000000E+00  5.557743568E+02  5.557743568E+02  0.000000000E+00  0.00000E+00  9.000E+00
       2    -1     0     0   502     0  0.000000000E+00  0.000000000E+00 -6.842777243E+02  6.842777243E+02  0.000000000E+00  0.00000E+00  9.000E+00
      22     1     1     2     0     0 -1.891978505E+02 -4.635101473E+02 -1.578740066E+02  5.249396967E+02  1.513911044E-05  0.00000E+00  9.000E+00
       2     1     1     2   501     0  9.849111691E+01  5.369275000E+02 -8.412123399E+01  5.523296320E+02  9.818678037E-06  0.00000E+00  9.000E+00
      21     1     1     2   502   511  9.070673363E+01 -7.341735272E+01  1.134918731E+02  1.627827523E+02  1.907348633E-06  0.00000E+00  9.000E+00
#rwgt            1          22   2.2734403985144107E-005        6024     4029533           0
<rwgt>
<wgt id='central'>  0.369998098E+04 </wgt>
<wgt id='sudakovwgt'>  0.100000000E+01 </wgt>
<wgt id='scales0.50.5'>  0.436101709E+04 </wgt>
<wgt id='scales0.51.0'>  0.426181332E+04 </wgt>
<wgt id='scales1.00.5'>  0.379136153E+04 </wgt>
<wgt id='scales1.02.0'>  0.362609368E+04 </wgt>
<wgt id='scales2.01.0'>  0.360330338E+04 </wgt>
<wgt id='scales2.02.0'>  0.351203629E+04 </wgt>
</rwgt>
<scales uborns=' 0.520001315E+03'> </scales>
</event>
<event>
      5  10001  1.25128E+03  2.81579E+01  7.29735E-03  1.54976E-01
       2    -1     0     0   514     0  0.000000000E+00  0.000000000E+00  1.776758822E+03  1.776758822E+03  0.000000000E+00  0.00000E+00  9.000E+00
      21    -1     0     0   512   513  0.000000000E+00  0.000000000E+00 -2.768276461E+02  2.768276461E+02  0.000000000E+00  0.00000E+00  9.000E+00
       2     1     1     2   512     0  4.891546381E+02  2.797639299E+02  1.052464977E+03  1.193826890E+03  1.525878906E-05  0.00000E+00  9.000E+00
      21     1     1     2   514   513 -5.492396444E+02 -2.948040416E+02  2.840982678E+02  6.850441123E+02  3.814697266E-06  0.00000E+00  9.000E+00
      22     1     1     2     0     0  6.008500639E+01  1.504011165E+01  1.633679312E+02  1.747154656E+02  1.907348633E-06  0.00000E+00  9.000E+00
#rwgt            1         182   1.1682193908610625E-002        6024     4030626           0
<rwgt>
<wgt id='central'>  0.125128195E+04 </wgt>
<wgt id='sudakovwgt'>  0.124690365E-02 </wgt>
<wgt id='scales0.50.5'>  0.161992176E+04 </wgt>
<wgt id='scales0.51.0'>  0.147956614E+04 </wgt>
<wgt id='scales1.00.5'>  0.136997978E+04 </wgt>
<wgt id='scales1.02.0'>  0.114794981E+04 </wgt>
<wgt id='scales2.01.0'>  0.107253030E+04 </wgt>
<wgt id='scales2.02.0'>  0.983961184E+03 </wgt>
</rwgt>
<scales uborns=' 0.625290646E+03'> </scales>
</event>
<event>
      5  10001  1.42948E+02  9.11752E-01  7.29735E-03  7.33157E-01
       1    -1     0     0   513     0  0.000000000E+00  0.000000000E+00  2.754834643E+03  2.754834643E+03  0.000000000E+00  0.00000E+00  9.000E+00
      21    -1     0     0   515   513  0.000000000E+00  0.000000000E+00 -7.791593377E+02  7.791593377E+02  0.000000000E+00  0.00000E+00  9.000E+00
       1     1     1     2   511     0  8.693863895E+02 -2.402067616E+02  2.353465124E+03  2.520382922E+03  0.000000000E+00  0.00000E+00  9.000E+00
      21     1     1     2   515   511 -8.764259030E+02  2.430962335E+02 -3.974237062E+02  9.925541519E+02  1.705984480E-05  0.00000E+00  9.000E+00
      22     1     1     2     0     0  7.039513463E+00 -2.889471952E+00  1.963388757E+01  2.105690716E+01  0.000000000E+00  0.00000E+00  9.000E+00
#rwgt            1         181   2.6771566377175380E-003        6024     4033328           0
<rwgt>
<wgt id='central'>  0.142948466E+03 </wgt>
<wgt id='sudakovwgt'>  0.495499571E-01 </wgt>
<wgt id='scales0.50.5'>  0.198056234E+03 </wgt>
<wgt id='scales0.51.0'>  0.167756786E+03 </wgt>
<wgt id='scales1.00.5'>  0.168766601E+03 </wgt>
<wgt id='scales1.02.0'>  0.122457445E+03 </wgt>
<wgt id='scales2.01.0'>  0.123312238E+03 </wgt>
<wgt id='scales2.02.0'>  0.105636327E+03 </wgt>
</rwgt>
<scales uborns=' 0.909525857E+03'> </scales>
</event>
<event>
      5  10001  2.13516E+01  1.18537E+01  7.29735E-03  1.87590E-01
       2    -1     0     0   511     0  0.000000000E+00  0.000000000E+00  2.568577207E+03  2.568577207E+03  0.000000000E+00  0.00000E+00  9.000E+00
       1    -1     0     0   512     0  0.000000000E+00  0.000000000E+00 -9.689835449E+02  9.689835449E+02  0.000000000E+00  0.00000E+00  9.000E+00
       2     1     1     2   512     0  1.027218523E+03 -7.539884347E+02  1.830793653E+03  2.230578816E+03  3.737624730E-05  0.00000E+00  9.000E+00
       1     1     1     2   511     0 -1.025371078E+03  7.537505379E+02 -2.425212183E+02  1.295508496E+03  6.607249480E-06  0.00000E+00  9.000E+00
      22     1     1     2     0     0 -1.847444189E+00  2.378968092E-01  1.132122719E+01  1.147344020E+01  0.000000000E+00  0.00000E+00  9.000E+00
#rwgt            1          92   2.8219103993738890E-003        6024     4034507           0
<rwgt>
<wgt id='central'>  0.213515577E+02 </wgt>
<wgt id='sudakovwgt'>  0.366062096E-03 </wgt>
<wgt id='scales0.50.5'>  0.277579631E+02 </wgt>
<wgt id='scales0.51.0'>  0.249004293E+02 </wgt>
<wgt id='scales1.00.5'>  0.238018758E+02 </wgt>
<wgt id='scales1.02.0'>  0.192854466E+02 </wgt>
<wgt id='scales2.01.0'>  0.185174529E+02 </wgt>
<wgt id='scales2.02.0'>  0.167255545E+02 </wgt>
</rwgt>
<scales uborns=' 0.127822502E+04'> </scales>
</event>
<event>
      5  10001  1.33151E+03  9.90753E+00  7.29735E-03  1.96224E-01
       2    -1     0     0   511     0  0.000000000E+00  0.000000000E+00  2.373411594E+03  2.373411594E+03  0.000000000E+00  0.00000E+00  9.000E+00
      21    -1     0     0   514   511  0.000000000E+00  0.000000000E+00 -1.700402672E+02  1.700402672E+02  0.000000000E+00  0.00000E+00  9.000E+00
       2     1     1     2   513     0  3.534387953E+02 -5.107391614E+02  1.208888192E+03  1.359111523E+03  1.525878906E-05  0.00000E+00  9.000E+00
      21     1     1     2   514   513 -3.577843437E+02  5.018354922E+02  9.087242200E+02  1.098011023E+03  1.525878906E-05  0.00000E+00  9.000E+00
      22     1     1     2     0     0  4.345548370E+00  8.903669188E+00  8.575891505E+01  8.632931498E+01  0.000000000E+00  0.00000E+00  9.000E+00
#rwgt            1         182   1.1018253314362146E-002        6024     4061640           0
<rwgt>
<wgt id='central'>  0.133150801E+04 </wgt>
<wgt id='sudakovwgt'>  0.765101501E-01 </wgt>
<wgt id='scales0.50.5'>  0.172016301E+04 </wgt>
<wgt id='scales0.51.0'>  0.157478668E+04 </wgt>
<wgt id='scales1.00.5'>  0.145442826E+04 </wgt>
<wgt id='scales1.02.0'>  0.122349370E+04 </wgt>
<wgt id='scales2.01.0'>  0.114108349E+04 </wgt>
<wgt id='scales2.02.0'>  0.104851519E+04 </wgt>
</rwgt>
<scales uborns=' 0.618692812E+03'> </scales>
</event>
<event>
      5  10001  2.15849E+01  1.77886E+02  7.29735E-03  1.13532E-01
       3    -1     0     0   511     0  0.000000000E+00  0.000000000E+00  1.504919953E+03  1.504919953E+03  0.000000000E+00  0.00000E+00  9.000E+00
       2    -1     0     0   512     0  0.000000000E+00  0.000000000E+00 -1.933245672E+03  1.933245672E+03  0.000000000E+00  0.00000E+00  9.000E+00
       3     1     1     2   512     0 -7.728316499E+02  9.840190536E+02  9.092261400E+02  1.546691446E+03  3.051757812E-05  0.00000E+00  9.000E+00
       2     1     1     2   511     0  6.732290611E+02 -7.923998755E+02 -1.311921201E+03  1.673998856E+03  0.000000000E+00  0.00000E+00  9.000E+00
      22     1     1     2     0     0  9.960258880E+01 -1.916191781E+02 -2.563065812E+01  2.174753222E+02  3.303624740E-06  0.00000E+00  9.000E+00
#rwgt            1          98   3.2800300236185962E-004        6024     4065923           0
<rwgt>
<wgt id='central'>  0.215848645E+02 </wgt>
<wgt id='sudakovwgt'>  0.109155911E-02 </wgt>
<wgt id='scales0.50.5'>  0.279439911E+02 </wgt>
<wgt id='scales0.51.0'>  0.251733955E+02 </wgt>
<wgt id='scales1.00.5'>  0.239605442E+02 </wgt>
<wgt id='scales1.02.0'>  0.195755270E+02 </wgt>
<wgt id='scales2.01.0'>  0.187192198E+02 </wgt>
<wgt id='scales2.02.0'>  0.169766175E+02 </wgt>
</rwgt>
<scales uborns=' 0.127567640E+04'> </scales>
</event>
<event>
      5  10001  1.47583E+04  6.75705E+00  7.29735E-03  2.17744E-01
       3    -1     0     0   512     0  0.000000000E+00  0.000000000E+00  3.921827051E+02  3.921827051E+02  0.000000000E+00  0.00000E+00  9.000E+00
       2    -1     0     0   513     0  0.000000000E+00  0.000000000E+00 -5.217631636E+02  5.217631636E+02  0.000000000E+00  0.00000E+00  9.000E+00
      22     1     1     2     0     0 -2.720807501E+02  1.091314215E+02 -1.846405749E+02  3.464530901E+02  6.031565972E-06  0.00000E+00  9.000E+00
       2     1     1     2   512     0  3.839299105E+02 -1.483051972E+02  1.246762678E+02  4.300474153E+02  3.568322551E-06  0.00000E+00  9.000E+00
       3     1     1     2   513     0 -1.118491603E+02  3.917377565E+01 -6.961615143E+01  1.374453634E+02  1.348699152E-06  0.00000E+00  9.000E+00
#rwgt            1          98   1.7479453954624830E-005        6024     4088452           0
<rwgt>
<wgt id='central'>  0.147583412E+05 </wgt>
<wgt id='sudakovwgt'>  0.100004805E-01 </wgt>
<wgt id='scales0.50.5'>  0.178184946E+05 </wgt>
<wgt id='scales0.51.0'>  0.176144846E+05 </wgt>
<wgt id='scales1.00.5'>  0.149292298E+05 </wgt>
<wgt id='scales1.02.0'>  0.145418755E+05 </wgt>
<wgt id='scales2.01.0'>  0.125514125E+05 </wgt>
<wgt id='scales2.02.0'>  0.123673511E+05 </wgt>
</rwgt>
<scales uborns=' 0.411635836E+03'> </scales>
</event>
<event>
      4  10001  7.81288E+00  8.94427E-01  7.29735E-03  7.50661E-01
       1    -1     0     0   512     0  0.000000000E+00  0.000000000E+00  1.138751195E+03  1.138751195E+03  0.000000000E+00  0.00000E+00  9.000E+00
      21    -1     0     0   514   512  0.000000000E+00  0.000000000E+00 -3.376556309E+03  3.376556309E+03  0.000000000E+00  0.00000E+00  9.000E+00
       1     1     1     2   511     0 -1.377720104E+03 -6.949759663E+02  2.741564743E+02  1.567247922E+03  2.018548058E-05  0.00000E+00  9.000E+00
      21     1     1     2   514   511  1.377720104E+03  6.949759663E+02 -2.511961588E+03  2.948059582E+03  0.000000000E+00  0.00000E+00  9.000E+00
#rwgt            1         181   3.5518661562950696E-004        6024     4107389           0
<rwgt>
<wgt id='central'>  0.781287534E+01 </wgt>
<wgt id='sudakovwgt'>  0.256205146E+01 </wgt>
<wgt id='scales0.50.5'>  0.113005081E+02 </wgt>
<wgt id='scales0.51.0'>  0.908178535E+01 </wgt>
<wgt id='scales1.00.5'>  0.972160318E+01 </wgt>
<wgt id='scales1.02.0'>  0.641492312E+01 </wgt>
<wgt id='scales2.01.0'>  0.679477426E+01 </wgt>
<wgt id='scales2.02.0'>  0.557898682E+01 </wgt>
</rwgt>
<scales uborns=' 0.154308272E+04'> </scales>
</event>
<event>
      5  10001  1.21410E+05  4.90100E+02  7.29735E-03  9.90993E-02
       2    -1     0     0   511     0  0.000000000E+00  0.000000000E+00  8.374268169E+01  8.374268169E+01  0.000000000E+00  0.00000E+00  9.000E+00
       2    -1     0     0   513     0  0.000000000E+00  0.000000000E+00 -1.035133005E+03  1.035133005E+03  0.000000000E+00  0.00000E+00  9.000E+00
       2     1     1     2   513     0 -5.231790359E+01 -5.985731388E+01 -1.013337845E+02  1.287967272E+02  2.336015456E-06  0.00000E+00  9.000E+00
      22     1     1     2     0     0 -3.194132405E+00  3.978457806E+01 -9.071077899E+02  9.079854391E+02  0.000000000E+00  0.00000E+00  9.000E+00
       2     1     1     2   511     0  5.551203600E+01  2.007273582E+01  5.705125099E+01  8.209352047E+01  3.438521648E-06  0.00000E+00  9.000E+00
#rwgt            1          97   1.9715376660155151E-004        6024     4108809           0
<rwgt>
<wgt id='central'>  0.121410367E+06 </wgt>
<wgt id='sudakovwgt'>  0.516803966E-03 </wgt>
<wgt id='scales0.50.5'>  0.146799336E+06 </wgt>
<wgt id='scales0.51.0'>  0.146184544E+06 </wgt>
<wgt id='scales1.00.5'>  0.121920600E+06 </wgt>
<wgt id='scales1.02.0'>  0.120510557E+06 </wgt>
<wgt id='scales2.01.0'>  0.102504805E+06 </wgt>
<wgt id='scales2.02.0'>  0.101745417E+06 </wgt>
</rwgt>
<scales uborns=' 0.288947819E+03'> </scales>
</event>
<event>
      5  10001  7.96773E+04  1.49067E+00  7.29735E-03  4.46816E-01
      21    -1     0     0   512   513  0.000000000E+00  0.000000000E+00  1.298825383E+02  1.298825383E+02  0.000000000E+00  0.00000E+00  9.000E+00
       1    -1     0     0   511     0  0.000000000E+00  0.000000000E+00 -7.433643516E+02  7.433643516E+02  0.000000000E+00  0.00000E+00  9.000E+00
       1     1     1     2   512     0 -1.492315976E+02 -2.565389161E+02 -3.217520275E+02  4.377289714E+02  3.814697266E-06  0.00000E+00  9.000E+00
      21     1     1     2   511   513  1.569056778E+02  2.674078976E+02 -2.786388537E+02  4.168524754E+02  5.394796609E-06  0.00000E+00  9.000E+00
      22     1     1     2     0     0 -7.674080249E+00 -1.086898148E+01 -1.309093202E+01  1.866544313E+01  3.371747881E-07  0.00000E+00  9.000E+00
#rwgt            1         186   2.9937474275648786E-003        6024     4108926           0
<rwgt>
<wgt id='central'>  0.796772896E+05 </wgt>
<wgt id='sudakovwgt'>  0.289260097E-01 </wgt>
<wgt id='scales0.50.5'>  0.994016970E+05 </wgt>
<wgt id='scales0.51.0'>  0.957613162E+05 </wgt>
<wgt id='scales1.00.5'>  0.827062446E+05 </wgt>
<wgt id='scales1.02.0'>  0.766133849E+05 </wgt>
<wgt id='scales2.01.0'>  0.673719562E+05 </wgt>
<wgt id='scales2.02.0'>  0.647812314E+05 </wgt>
</rwgt>
<scales uborns=' 0.310082425E+03'> </scales>
</event>
<event>
      5  10001  1.02975E+05  1.16039E+01  7.29735E-03  1.88573E-01
       1    -1     0     0   512     0  0.000000000E+00  0.000000000E+00  8.399554349E+02  8.399554349E+02  0.000000000E+00  0.00000E+00  9.000E+00
       2    -1     0     0   514     0  0.000000000E+00  0.000000000E+00 -1.620129021E+02  1.620129021E+02  0.000000000E+00  0.00000E+00  9.000E+00
       1     1     1     2   514     0 -2.062921183E+02  2.062832606E+02  5.936227474E+02  6.614357021E+02  7.629394531E-06  0.00000E+00  9.000E+00
       2     1     1     2   512     0  2.105623652E+02 -2.170728808E+02  1.021966988E+02  3.192198466E+02  6.468133910E-06  0.00000E+00  9.000E+00
      22     1     1     2     0     0 -4.270246871E+00  1.078962022E+01 -1.787691342E+01  2.131278833E+01  0.000000000E+00  0.00000E+00  9.000E+00
#rwgt            1          96   2.6225677121306389E-004        6024     4109787           0
<rwgt>
<wgt id='central'>  0.102974679E+06 </wgt>
<wgt id='sudakovwgt'>  0.586373564E-01 </wgt>
<wgt id='scales0.50.5'>  0.126221163E+06 </wgt>
<wgt id='scales0.51.0'>  0.123898904E+06 </wgt>
<wgt id='scales1.00.5'>  0.104905078E+06 </wgt>
<wgt id='scales1.02.0'>  0.100923500E+06 </wgt>
<wgt id='scales2.01.0'>  0.869919305E+05 </wgt>
<wgt id='scales2.02.0'>  0.852588504E+05 </wgt>
</rwgt>
<scales uborns=' 0.297032699E+03'> </scales>
</event>
<event>
      4  10001  5.84920E+03  8.94427E-01  7.29735E-03  7.48476E-01
      21    -1     0     0   513   514  0.000000000E+00  0.000000000E+00  1.193909698E+02  1.193909698E+02  0.000000000E+00  0.00000E+00  9.000E+00
       3    -1     0     0   514     0  0.000000000E+00  0.000000000E+00 -2.433596041E+03  2.433596041E+03  0.000000000E+00  0.00000E+00  9.000E+00
       3     1     1     2   511     0 -1.721471911E+01 -4.809035419E+02 -1.732249437E+03  1.797846677E+03  2.157918644E-05  0.00000E+00  9.000E+00
      21     1     1     2   513   511  1.721471911E+01  4.809035419E+02 -5.819556342E+02  7.551403335E+02  0.000000000E+00  0.00000E+00  9.000E+00
#rwgt            1         188   4.6515240062689638E-004        6024     4124246           0
<rwgt>
<wgt id='central'>  0.584919631E+04 </wgt>
<wgt id='sudakovwgt'>  0.152974718E+01 </wgt>
<wgt id='scales0.50.5'>  0.724977535E+04 </wgt>
<wgt id='scales0.51.0'>  0.695604956E+04 </wgt>
<wgt id='scales1.00.5'>  0.609618801E+04 </wgt>
<wgt id='scales1.02.0'>  0.559639298E+04 </wgt>
<wgt id='scales2.01.0'>  0.498956759E+04 </wgt>
<wgt id='scales2.02.0'>  0.477391455E+04 </wgt>
</rwgt>
<scales uborns=' 0.481211558E+03'> </scales>
</event>
<event>
      5  10001  1.20564E+02  1.66795E+00  7.29735E-03  4.04375E-01
       3    -1     0     0   511     0  0.000000000E+00  0.000000000E+00  4.289278829E+03  4.289278829E+03  0.000000000E+00  0.00000E+00  9.000E+00
      21    -1     0     0   512   515  0.000000000E+00  0.000000000E+00 -2.585459647E+02  2.585459647E+02  0.000000000E+00  0.00000E+00  9.000E+00
       3     1     1     2   512     0 -8.467576383E+02 -3.997611338E+02  9.789590932E+02  1.354683863E+03  2.642899792E-05  0.00000E+00  9.000E+00
      21     1     1     2   511   515  8.477965909E+02  4.010659887E+02  3.044916629E+03  3.186083845E+03  4.315837288E-05  0.00000E+00  9.000E+00
      22     1     1     2     0     0 -1.038952603E+00 -1.304854916E+00  6.857141179E+00  7.057085377E+00  0.000000000E+00  0.00000E+00  9.000E+00
#rwgt            1         183   3.1756992014347652E-004        6024     4126299           0
<rwgt>
<wgt id='central'>  0.120563724E+03 </wgt>
<wgt id='sudakovwgt'>  0.339934701E-01 </wgt>
<wgt id='scales0.50.5'>  0.160722343E+03 </wgt>
<wgt id='scales0.51.0'>  0.141407066E+03 </wgt>
<wgt id='scales1.00.5'>  0.137032252E+03 </wgt>
<wgt id='scales1.02.0'>  0.106792434E+03 </wgt>
<wgt id='scales2.01.0'>  0.104053555E+03 </wgt>
<wgt id='scales2.02.0'>  0.921679142E+02 </wgt>
</rwgt>
<scales uborns=' 0.937128105E+03'> </scales>
</event>
<event>
      5  10001  3.62017E+03  2.91259E+00  7.29735E-03  3.00820E-01
      21    -1     0     0   513   514  0.000000000E+00  0.000000000E+00  5.266752868E+02  5.266752868E+02  0.000000000E+00  0.00000E+00  9.000E+00
      21    -1     0     0   514   511  0.000000000E+00  0.000000000E+00 -7.410736677E+02  7.410736677E+02  0.000000000E+00  0.00000E+00  9.000E+00
       5     1     1     2   513     0  3.441869025E+02  3.922986493E+02  2.411609838E+02  5.749099705E+02  7.136645101E-06  0.00000E+00  9.000E+00
      -5     1     1     2     0   511 -3.250389523E+02 -3.677670358E+02 -4.256805917E+02  6.496975290E+02  1.078959322E-05  0.00000E+00  9.000E+00
      22     1     1     2     0     0 -1.914795020E+01 -2.453161347E+01 -2.987877304E+01  4.314145495E+01  7.539457465E-07  0.00000E+00  9.000E+00
#rwgt            1         205   6.1118256748527339E-005        6024     4127649           0
<rwgt>
<wgt id='central'>  0.362016533E+04 </wgt>
<wgt id='sudakovwgt'>  0.523322358E-01 </wgt>
<wgt id='scales0.50.5'>  0.489852634E+04 </wgt>
<wgt id='scales0.51.0'>  0.429739883E+04 </wgt>
<wgt id='scales1.00.5'>  0.412656559E+04 </wgt>
<wgt id='scales1.02.0'>  0.320196504E+04 </wgt>
<wgt id='scales2.01.0'>  0.309283851E+04 </wgt>
<wgt id='scales2.02.0'>  0.273555132E+04 </wgt>
</rwgt>
<scales uborns=' 0.521926962E+03'> </scales>
</event>
<event>
      4  10001  9.10301E+02  8.94427E-01  7.29735E-03  7.51771E-01
      21    -1     0     0   515   514  0.000000000E+00  0.000000000E+00  4.284642838E+02  4.284642838E+02  0.000000000E+00  0.00000E+00  9.000E+00
       1    -1     0     0   514     0  0.000000000E+00  0.000000000E+00 -2.089994401E+03  2.089994401E+03  0.000000000E+00  0.00000E+00  9.000E+00
       1     1     1     2   512     0 -2.578508217E+02 -6.078121683E+02 -1.732852349E+03  1.854373194E+03  0.000000000E+00  0.00000E+00  9.000E+00
      21     1     1     2   515   512  2.578508217E+02  6.078121683E+02  7.132223213E+01  6.640854907E+02  1.168007728E-05  0.00000E+00  9.000E+00
#rwgt            1         186   5.2461062467382535E-003        6024     4128580           0
<rwgt>
<wgt id='central'>  0.910301426E+03 </wgt>
<wgt id='sudakovwgt'>  0.227784711E+01 </wgt>
<wgt id='scales0.50.5'>  0.122239000E+04 </wgt>
<wgt id='scales0.51.0'>  0.107515115E+04 </wgt>
<wgt id='scales1.00.5'>  0.103496409E+04 </wgt>
<wgt id='scales1.02.0'>  0.807136986E+03 </wgt>
<wgt id='scales2.01.0'>  0.781012067E+03 </wgt>
<wgt id='scales2.02.0'>  0.692500311E+03 </wgt>
</rwgt>
<scales uborns=' 0.660244408E+03'> </scales>
</event>
<event>
      4  10001  5.64496E+03  8.94427E-01  7.29735E-03  7.49394E-01
      21    -1     0     0   512   513  0.000000000E+00  0.000000000E+00  6.293015555E+02  6.293015555E+02  0.000000000E+00  0.00000E+00  9.000E+00
      -5    -1     0     0     0   511  0.000000000E+00  0.000000000E+00 -3.827116232E+02  3.827116232E+02  0.000000000E+00  0.00000E+00  9.000E+00
      -5     1     1     2     0   513  3.840252669E+02 -2.947698740E+02  2.062715621E+02  5.262248964E+02  1.236103191E-05  0.00000E+00  9.000E+00
      21     1     1     2   512   511 -3.840252669E+02  2.947698740E+02  4.031837021E+01  4.857882823E+02  9.560555294E-06  0.00000E+00  9.000E+00
#rwgt            1         200   8.6883056624683554E-005        6024     4130660           0
<rwgt>
<wgt id='central'>  0.564495817E+04 </wgt>
<wgt id='sudakovwgt'>  0.185539767E+01 </wgt>
<wgt id='scales0.50.5'>  0.678240896E+04 </wgt>
<wgt id='scales0.51.0'>  0.671224899E+04 </wgt>
<wgt id='scales1.00.5'>  0.570396410E+04 </wgt>
<wgt id='scales1.02.0'>  0.552482700E+04 </wgt>
<wgt id='scales2.01.0'>  0.481589189E+04 </wgt>
<wgt id='scales2.02.0'>  0.471340267E+04 </wgt>
</rwgt>
<scales uborns=' 0.484112264E+03'> </scales>
</event>
<event>
      5  10001  8.49055E+00  3.04886E+00  7.29735E-03  2.94755E-01
       1    -1     0     0   511     0  0.000000000E+00  0.000000000E+00  1.103270835E+03  1.103270835E+03  0.000000000E+00  0.00000E+00  9.000E+00
       4    -1     0     0   514     0  0.000000000E+00  0.000000000E+00 -2.773917341E+03  2.773917341E+03  0.000000000E+00  0.00000E+00  9.000E+00
       1     1     1     2   514     0 -1.467876772E+03 -3.913296315E+02  2.606522192E+01  1.519368453E+03  4.122642628E-05  0.00000E+00  9.000E+00
       4     1     1     2   511     0  1.466355147E+03  3.939716406E+02 -1.413093839E+03  2.074185447E+03  0.000000000E+00  0.00000E+00  9.000E+00
      22     1     1     2     0     0  1.521625632E+00 -2.642009132E+00 -2.836178889E+02  2.836342759E+02  3.814697266E-06  0.00000E+00  9.000E+00
#rwgt            1         106   5.1063104545006396E-005        6024     4131155           0
<rwgt>
<wgt id='central'>  0.849054886E+01 </wgt>
<wgt id='sudakovwgt'>  0.827902868E+00 </wgt>
<wgt id='scales0.50.5'>  0.108562428E+02 </wgt>
<wgt id='scales0.51.0'>  0.987218010E+01 </wgt>
<wgt id='scales1.00.5'>  0.933689129E+01 </wgt>
<wgt id='scales1.02.0'>  0.775761582E+01 </wgt>
<wgt id='scales2.01.0'>  0.738242757E+01 </wgt>
<wgt id='scales2.02.0'>  0.674515042E+01 </wgt>
</rwgt>
<scales uborns=' 0.151875068E+04'> </scales>
</event>
<event>
      5  10001  5.64567E+00  5.80199E+01  7.29735E-03  1.35487E-01
       2    -1     0     0   513     0  0.000000000E+00  0.000000000E+00  2.759407668E+03  2.759407668E+03  0.000000000E+00  0.00000E+00  9.000E+00
       1    -1     0     0   512     0  0.000000000E+00  0.000000000E+00 -9.785632430E+02  9.785632430E+02  0.000000000E+00  0.00000E+00  9.000E+00
       2     1     1     2   512     0 -1.180400869E+03  1.124398508E+03  8.503660489E+02  1.838679046E+03  2.412626389E-05  0.00000E+00  9.000E+00
       1     1     1     2   513     0  1.117243691E+03 -1.133896194E+03  8.972984703E+02  1.827320056E+03  3.051757812E-05  0.00000E+00  9.000E+00
      22     1     1     2     0     0  6.315717827E+01  9.497685980E+00  3.317990628E+01  7.197180967E+01  1.784161275E-06  0.00000E+00  9.000E+00
#rwgt            1          92   1.3951091769638453E-003        6024     4135577           0
<rwgt>
<wgt id='central'>  0.564567243E+01 </wgt>
<wgt id='sudakovwgt'>  0.153885598E-02 </wgt>
<wgt id='scales0.50.5'>  0.732279062E+01 </wgt>
<wgt id='scales0.51.0'>  0.655567308E+01 </wgt>
<wgt id='scales1.00.5'>  0.630630278E+01 </wgt>
<wgt id='scales1.02.0'>  0.508921131E+01 </wgt>
<wgt id='scales2.01.0'>  0.491442562E+01 </wgt>
<wgt id='scales2.02.0'>  0.443004116E+01 </wgt>
</rwgt>
<scales uborns=' 0.164298284E+04'> </scales>
</event>
<event>
      5  10001  1.45924E+02  2.59335E+01  7.29735E-03  1.57567E-01
      -2    -1     0     0     0   511  0.000000000E+00  0.000000000E+00  1.805414220E+03  1.805414220E+03  0.000000000E+00  0.00000E+00  9.000E+00
      21    -1     0     0   514   513  0.000000000E+00  0.000000000E+00 -4.945993905E+02  4.945993905E+02  0.000000000E+00  0.00000E+00  9.000E+00
      -2     1     1     2     0   513 -8.601878191E+02 -1.738223628E+02  9.379734848E+02  1.284496616E+03  2.157918644E-05  0.00000E+00  9.000E+00
      21     1     1     2   514   511  8.793651782E+02  2.008355602E+02  3.280588619E+02  9.598128233E+02  5.394796609E-06  0.00000E+00  9.000E+00
      22     1     1     2     0     0 -1.917735910E+01 -2.701319739E+01  4.478248241E+01  5.570417100E+01  0.000000000E+00  0.00000E+00  9.000E+00
#rwgt            1         192   2.5756883035691600E-004        6024     4149229           0
<rwgt>
<wgt id='central'>  0.145924235E+03 </wgt>
<wgt id='sudakovwgt'>  0.330278791E-02 </wgt>
<wgt id='scales0.50.5'>  0.194720374E+03 </wgt>
<wgt id='scales0.51.0'>  0.171261160E+03 </wgt>
<wgt id='scales1.00.5'>  0.165912550E+03 </wgt>
<wgt id='scales1.02.0'>  0.129327901E+03 </wgt>
<wgt id='scales2.01.0'>  0.125872026E+03 </wgt>
<wgt id='scales2.02.0'>  0.111556460E+03 </wgt>
</rwgt>
<scales uborns=' 0.906247668E+03'> </scales>
</event>
<event>
      5  10001  4.54862E+04  4.13726E+00  7.29735E-03  2.60064E-01
      21    -1     0     0   515   511  0.000000000E+00  0.000000000E+00  4.576904182E+02  4.576904182E+02  0.000000000E+00  0.00000E+00  9.000E+00
      -2    -1     0     0     0   512  0.000000000E+00  0.000000000E+00 -3.772682014E+02  3.772682014E+02  0.000000000E+00  0.00000E+00  9.000E+00
      -2     1     1     2     0   511  2.704729946E+02  1.651955674E+02 -1.892600437E+02  3.691403262E+02  7.136645101E-06  0.00000E+00  9.000E+00
      21     1     1     2   515   512 -2.912796637E+02 -1.764115755E+02  2.791763464E+02  4.403456810E+02  3.814697266E-06  0.00000E+00  9.000E+00
      22     1     1     2     0     0  2.080666907E+01  1.121600805E+01 -9.494085913E+00  2.547261239E+01  4.460403188E-07  0.00000E+00  9.000E+00
#rwgt            1         197   9.9994271112005843E-004        6024     4150333           0
<rwgt>
<wgt id='central'>  0.454861735E+05 </wgt>
<wgt id='sudakovwgt'>  0.313764901E-02 </wgt>
<wgt id='scales0.50.5'>  0.584777297E+05 </wgt>
<wgt id='scales0.51.0'>  0.545387516E+05 </wgt>
<wgt id='scales1.00.5'>  0.487713714E+05 </wgt>
<wgt id='scales1.02.0'>  0.425207007E+05 </wgt>
<wgt id='scales2.01.0'>  0.385370248E+05 </wgt>
<wgt id='scales2.02.0'>  0.360245810E+05 </wgt>
</rwgt>
<scales uborns=' 0.340660111E+03'> </scales>
</event>
<event>
      5  10001  3.15849E-01  1.48174E+00  7.29735E-03  4.48890E-01
       1    -1     0     0   512     0  0.000000000E+00  0.000000000E+00  2.152725956E+03  2.152725956E+03  0.000000000E+00  0.00000E+00  9.000E+00
       3    -1     0     0   513     0  0.000000000E+00  0.000000000E+00 -4.652608383E+03  4.652608383E+03  0.000000000E+00  0.00000E+00  9.000E+00
       1     1     1     2   513     0 -3.065529238E+03  5.503472902E+02 -6.461517085E+02  3.180858953E+03  3.145679951E-05  0.00000E+00  9.000E+00
       3     1     1     2   512     0  3.022388487E+03 -5.411691219E+02 -1.827043061E+03  3.572923528E+03  4.315837288E-05  0.00000E+00  9.000E+00
      22     1     1     2     0     0  4.314075047E+01 -9.178168319E+00 -2.668765700E+01  5.155185895E+01  6.743495762E-07  0.00000E+00  9.000E+00
#rwgt            1         101   4.4677774282945602E-004        6024     4153550           0
<rwgt>
<wgt id='central'>  0.315849306E+00 </wgt>
<wgt id='sudakovwgt'>  0.508276552E-02 </wgt>
<wgt id='scales0.50.5'>  0.429906910E+00 </wgt>
<wgt id='scales0.51.0'>  0.363126451E+00 </wgt>
<wgt id='scales1.00.5'>  0.373934940E+00 </wgt>
<wgt id='scales1.02.0'>  0.269607488E+00 </wgt>
<wgt id='scales2.01.0'>  0.277312590E+00 </wgt>
<wgt id='scales2.02.0'>  0.236712957E+00 </wgt>
</rwgt>
<scales uborns=' 0.311455062E+04'> </scales>
</event>
<event>
      5  10001  1.39722E+04  1.55681E+01  7.29735E-03  1.75876E-01
      21    -1     0     0   511   513  0.000000000E+00  0.000000000E+00  1.105007183E+02  1.105007183E+02  0.000000000E+00  0.00000E+00  9.000E+00
       2    -1     0     0   514     0  0.000000000E+00  0.000000000E+00 -1.641368314E+03  1.641368314E+03  0.000000000E+00  0.00000E+00  9.000E+00
       2     1     1     2   511     0  2.405330443E+02  3.330358041E+02 -7.426458882E+02  8.487001281E+02  1.525878906E-05  0.00000E+00  9.000E+00
      21     1     1     2   514   513 -2.561005441E+02 -3.331739079E+02 -7.242985569E+02  8.373772991E+02  1.525878906E-05  0.00000E+00  9.000E+00
      22     1     1     2     0     0  1.556749979E+01  1.381037987E-01 -6.392315074E+01  6.579160527E+01  9.536743164E-07  0.00000E+00  9.000E+00
#rwgt            1         187   1.0141392930304572E-002        6024     4155838           0
<rwgt>
<wgt id='central'>  0.139721734E+05 </wgt>
<wgt id='sudakovwgt'>  0.320811081E-01 </wgt>
<wgt id='scales0.50.5'>  0.175700279E+05 </wgt>
<wgt id='scales0.51.0'>  0.166726253E+05 </wgt>
<wgt id='scales1.00.5'>  0.147242524E+05 </wgt>
<wgt id='scales1.02.0'>  0.132563519E+05 </wgt>
<wgt id='scales2.01.0'>  0.118850178E+05 </wgt>
<wgt id='scales2.02.0'>  0.112761038E+05 </wgt>
</rwgt>
<scales uborns=' 0.415449070E+03'> </scales>
</event>
<event>
      5  10001  3.28795E+03  1.84010E+02  7.29735E-03  1.12981E-01
      21    -1     0     0   515   513  0.000000000E+00  0.000000000E+00  1.219787198E+03  1.219787198E+03  0.000000000E+00  0.00000E+00  9.000E+00
       2    -1     0     0   513     0  0.000000000E+00  0.000000000E+00 -9.264056616E+02  9.264056616E+02  0.000000000E+00  0.00000E+00  9.000E+00
       2     1     1     2   512     0  5.699133458E+02 -2.568011182E+02 -5.565846481E+02  8.369793943E+02  2.018548058E-05  0.00000E+00  9.000E+00
      21     1     1     2   515   512 -4.032992685E+02  1.787014664E+02  9.861348628E+02  1.080299256E+03  1.525878906E-05  0.00000E+00  9.000E+00
      22     1     1     2     0     0 -1.666140772E+02  7.809965187E+01 -1.361686785E+02  2.289142096E+02  5.394796609E-06  0.00000E+00  9.000E+00
#rwgt            1         187   4.0408977859120098E-003        6024     4156649           0
<rwgt>
<wgt id='central'>  0.328794836E+04 </wgt>
<wgt id='sudakovwgt'>  0.225790628E-01 </wgt>
<wgt id='scales0.50.5'>  0.437282324E+04 </wgt>
<wgt id='scales0.51.0'>  0.390162305E+04 </wgt>
<wgt id='scales1.00.5'>  0.368503671E+04 </wgt>
<wgt id='scales1.02.0'>  0.295651121E+04 </wgt>
<wgt id='scales2.01.0'>  0.280986147E+04 </wgt>
<wgt id='scales2.02.0'>  0.252661595E+04 </wgt>
</rwgt>
<scales uborns=' 0.530514851E+03'> </scales>
</event>
<event>
      5  10001  4.29269E+04  3.82646E+02  7.29735E-03  1.02268E-01
      21    -1     0     0   511   513  0.000000000E+00  0.000000000E+00  1.402047590E+02  1.402047590E+02  0.000000000E+00  0.00000E+00  9.000E+00
       2    -1     0     0   512     0  0.000000000E+00  0.000000000E+00 -1.107982911E+03  1.107982911E+03  0.000000000E+00  0.00000E+00  9.000E+00
      22     1     1     2     0     0  5.356171829E+01  4.830013565E+00 -3.718382811E+02  3.757071918E+02  5.394796609E-06  0.00000E+00  9.000E+00
      21     1     1     2   512   513 -1.139985776E+02  2.844465627E+02 -1.596750517E+02  3.455454310E+02  4.264961200E-06  0.00000E+00  9.000E+00
       2     1     1     2   511     0  6.043685931E+01 -2.892765762E+02 -4.362648190E+02  5.269350471E+02  5.394796609E-06  0.00000E+00  9.000E+00
#rwgt            1         187   1.1427079088715509E-002        6024     4156897           0
<rwgt>
<wgt id='central'>  0.429268557E+05 </wgt>
<wgt id='sudakovwgt'>  0.444876791E-03 </wgt>
<wgt id='scales0.50.5'>  0.538397703E+05 </wgt>
<wgt id='scales0.51.0'>  0.514576731E+05 </wgt>
<wgt id='scales1.00.5'>  0.449140875E+05 </wgt>
<wgt id='scales1.02.0'>  0.409928959E+05 </wgt>
<wgt id='scales2.01.0'>  0.363760188E+05 </wgt>
<wgt id='scales2.02.0'>  0.347371544E+05 </wgt>
</rwgt>
<scales uborns=' 0.343988327E+03'> </scales>
</event>
<event>
      5  10001  8.52261E+00  1.37666E+01  7.29735E-03  1.80967E-01
       2    -1     0     0   511     0  0.000000000E+00  0.000000000E+00  3.193881819E+03  3.193881819E+03  0.000000000E+00  0.00000E+00  9.000E+00
      -3    -1     0     0     0   511  0.000000000E+00  0.000000000E+00 -7.535126961E+02  7.535126961E+02  0.000000000E+00  0.00000E+00  9.000E+00
       2     1     1     2   512     0  1.342514884E+03  6.994642168E+02  1.361193220E+03  2.035790605E+03  0.000000000E+00  0.00000E+00  9.000E+00
      -3     1     1     2     0   512 -1.344075272E+03 -7.131421294E+02  9.763558959E+02  1.807866386E+03  1.078959322E-05  0.00000E+00  9.000E+00
      22     1     1     2     0     0  1.560387980E+00  1.367791251E+01  1.028200068E+02  1.037375241E+02  1.348699152E-06  0.00000E+00  9.000E+00
#rwgt            1         146   1.8850099397536965E-004        6024     4157032           0
<rwgt>
<wgt id='central'>  0.852260714E+01 </wgt>
<wgt id='sudakovwgt'>  0.103155973E+00 </wgt>
<wgt id='scales0.50.5'>  0.109982164E+02 </wgt>
<wgt id='scales0.51.0'>  0.990957818E+01 </wgt>
<wgt id='scales1.00.5'>  0.945887984E+01 </wgt>
<wgt id='scales1.02.0'>  0.772134934E+01 </wgt>
<wgt id='scales2.01.0'>  0.741022567E+01 </wgt>
<wgt id='scales2.02.0'>  0.671354680E+01 </wgt>
</rwgt>
<scales uborns=' 0.151765971E+04'> </scales>
</event>
<event>
      5  10001  5.48401E+03  1.44673E+02  7.29735E-03  1.17019E-01
      21    -1     0     0   512   514  0.000000000E+00  0.000000000E+00  1.528186218E+02  1.528186218E+02  0.000000000E+00  0.00000E+00  9.000E+00
       4    -1     0     0   514     0  0.000000000E+00  0.000000000E+00 -2.096046501E+03  2.096046501E+03  0.000000000E+00  0.00000E+00  9.000E+00
      22     1     1     2     0     0  9.077859669E+01  1.731289103E+02 -8.553829930E+02  8.774362871E+02  1.525878906E-05  0.00000E+00  9.000E+00
      21     1     1     2   512   513 -2.625656637E+02 -4.008628552E+02 -3.910647793E+02  6.185171121E+02  7.629394531E-06  0.00000E+00  9.000E+00
       4     1     1     2   513     0  1.717870670E+02  2.277339448E+02 -6.967801070E+02  7.529117236E+02  1.525878906E-05  0.00000E+00  9.000E+00
#rwgt            1         189   2.9186384969284121E-004        6024     4163726           0
<rwgt>
<wgt id='central'>  0.548400711E+04 </wgt>
<wgt id='sudakovwgt'>  0.650625643E-03 </wgt>
<wgt id='scales0.50.5'>  0.684228665E+04 </wgt>
<wgt id='scales0.51.0'>  0.652014817E+04 </wgt>
<wgt id='scales1.00.5'>  0.575495640E+04 </wgt>
<wgt id='scales1.02.0'>  0.521209616E+04 </wgt>
<wgt id='scales2.01.0'>  0.467901324E+04 </wgt>
<wgt id='scales2.02.0'>  0.444701359E+04 </wgt>
</rwgt>
<scales uborns=' 0.486486386E+03'> </scales>
</event>
<event>
      5  10001  7.45944E+03  1.10227E+01  7.29735E-03  1.90992E-01
      21    -1     0     0   513   514  0.000000000E+00  0.000000000E+00  1.067461088E+03  1.067461088E+03  0.000000000E+00  0.00000E+00  9.000E+00
      -3    -1     0     0     0   511  0.000000000E+00  0.000000000E+00 -2.666262379E+02  2.666262379E+02  0.000000000E+00  0.00000E+00  9.000E+00
      -3     1     1     2     0   514 -2.447576483E+02  3.851981076E+02  8.434391189E+01  4.641096680E+02  4.573661350E-06  0.00000E+00  9.000E+00
      21     1     1     2   513   511  2.516012333E+02 -3.938389990E+02  7.200281283E+02  8.584013300E+02  0.000000000E+00  0.00000E+00  9.000E+00
      22     1     1     2     0     0 -6.843585005E+00  8.640891423E+00 -3.537189877E+00  1.157632811E+01  2.457562462E-07  0.00000E+00  9.000E+00
#rwgt            1         198   4.1885734689152399E-004        6024     4164933           0
<rwgt>
<wgt id='central'>  0.745944287E+04 </wgt>
<wgt id='sudakovwgt'>  0.263725630E-01 </wgt>
<wgt id='scales0.50.5'>  0.964853859E+04 </wgt>
<wgt id='scales0.51.0'>  0.887929426E+04 </wgt>
<wgt id='scales1.00.5'>  0.810567739E+04 </wgt>
<wgt id='scales1.02.0'>  0.688700916E+04 </wgt>
<wgt id='scales2.01.0'>  0.635817956E+04 </wgt>
<wgt id='scales2.02.0'>  0.587025848E+04 </wgt>
</rwgt>
<scales uborns=' 0.461838138E+03'> </scales>
</event>
<event>
      5  10001  1.58540E+01  1.47089E+01  7.29735E-03  1.78189E-01
       1    -1     0     0   511     0  0.000000000E+00  0.000000000E+00  1.544181412E+03  1.544181412E+03  0.000000000E+00  0.00000E+00  9.000E+00
      21    -1     0     0   512   515  0.000000000E+00  0.000000000E+00 -1.558142019E+03  1.558142019E+03  0.000000000E+00  0.00000E+00  9.000E+00
       1     1     1     2   512     0  7.295139740E+02 -1.138626385E+03 -3.498766794E+02  1.396808639E+03  1.982174844E-05  0.00000E+00  9.000E+00
      21     1     1     2   511   515 -7.395230286E+02  1.127848195E+03 -2.046080875E+01  1.348834499E+03  6.312466762E-06  0.00000E+00  9.000E+00
      22     1     1     2     0     0  1.000905459E+01  1.077819050E+01  3.563768806E+02  3.566802932E+02  6.607249480E-06  0.00000E+00  9.000E+00
#rwgt            1         181   8.9652817568625044E-004        6024     4165066           0
<rwgt>
<wgt id='central'>  0.158539854E+02 </wgt>
<wgt id='sudakovwgt'>  0.257586007E-01 </wgt>
<wgt id='scales0.50.5'>  0.212830793E+02 </wgt>
<wgt id='scales0.51.0'>  0.184712102E+02 </wgt>
<wgt id='scales1.00.5'>  0.182674516E+02 </wgt>
<wgt id='scales1.02.0'>  0.138927369E+02 </wgt>
<wgt id='scales2.01.0'>  0.137609650E+02 </wgt>
<wgt id='scales2.02.0'>  0.120586266E+02 </wgt>
</rwgt>
<scales uborns=' 0.135045955E+04'> </scales>
</event>
<event>
      5  10001  1.86460E+01  6.40666E+01  7.29735E-03  1.33199E-01
      21    -1     0     0   513   512  0.000000000E+00  0.000000000E+00  2.712322368E+03  2.712322368E+03  0.000000000E+00  0.00000E+00  9.000E+00
       2    -1     0     0   514     0  0.000000000E+00  0.000000000E+00 -1.334956415E+03  1.334956415E+03  0.000000000E+00  0.00000E+00  9.000E+00
       2     1     1     2   513     0 -7.693024735E+02 -9.092688676E+02 -6.548418776E+02  1.359196106E+03  2.157918644E-05  0.00000E+00  9.000E+00
      21     1     1     2   514   512  8.727669424E+02  9.738756331E+02  2.151312612E+03  2.517598427E+03  0.000000000E+00  0.00000E+00  9.000E+00
      22     1     1     2     0     0 -1.034644689E+02 -6.460676549E+01 -1.191047819E+02  1.704842502E+02  4.046097457E-06  0.00000E+00  9.000E+00
#rwgt            1         187   3.1928594859812190E-003        6024     4165470           0
<rwgt>
<wgt id='central'>  0.186459821E+02 </wgt>
<wgt id='sudakovwgt'>  0.846632647E-03 </wgt>
<wgt id='scales0.50.5'>  0.262557069E+02 </wgt>
<wgt id='scales0.51.0'>  0.217355613E+02 </wgt>
<wgt id='scales1.00.5'>  0.225236378E+02 </wgt>
<wgt id='scales1.02.0'>  0.156722410E+02 </wgt>
<wgt id='scales2.01.0'>  0.161770767E+02 </wgt>
<wgt id='scales2.02.0'>  0.135970742E+02 </wgt>
</rwgt>
<scales uborns=' 0.131051373E+04'> </scales>
</event>
<event>
      5  10001  7.22256E+02  6.49802E+01  7.29735E-03  1.32878E-01
       2    -1     0     0   511     0  0.000000000E+00  0.000000000E+00  5.818036487E+02  5.818036487E+02  0.000000000E+00  0.00000E+00  9.000E+00
       2    -1     0     0   512     0  0.000000000E+00  0.000000000E+00 -2.244531442E+03  2.244531442E+03  0.000000000E+00  0.00000E+00  9.000E+00
       2     1     1     2   511     0  6.480734190E+02 -1.747767697E+02 -6.149755739E+02  9.103521473E+02  2.018548058E-05  0.00000E+00  9.000E+00
       2     1     1     2   512     0 -6.626532887E+02  2.381001991E+02  1.471269561E+02  7.193381869E+02  2.382277679E-05  0.00000E+00  9.000E+00
      22     1     1     2     0     0  1.457986973E+01 -6.332342938E+01 -1.194879176E+03  1.196644757E+03  1.525878906E-05  0.00000E+00  9.000E+00
#rwgt            1          97   1.0057234005468115E-003        6024     4166323           0
<rwgt>
<wgt id='central'>  0.722256361E+03 </wgt>
<wgt id='sudakovwgt'>  0.428496226E-01 </wgt>
<wgt id='scales0.50.5'>  0.892681448E+03 </wgt>
<wgt id='scales0.51.0'>  0.852351666E+03 </wgt>
<wgt id='scales1.00.5'>  0.756430189E+03 </wgt>
<wgt id='scales1.02.0'>  0.690943955E+03 </wgt>
<wgt id='scales2.01.0'>  0.620104755E+03 </wgt>
<wgt id='scales2.02.0'>  0.593221284E+03 </wgt>
</rwgt>
<scales uborns=' 0.686955514E+03'> </scales>
</event>
<event>
      5  10001  3.36827E+02  2.65284E+01  7.29735E-03  1.56844E-01
       2    -1     0     0   514     0  0.000000000E+00  0.000000000E+00  3.708683801E+03  3.708683801E+03  0.000000000E+00  0.00000E+00  9.000E+00
      21    -1     0     0   513   511  0.000000000E+00  0.000000000E+00 -2.579697446E+02  2.579697446E+02  0.000000000E+00  0.00000E+00  9.000E+00
       2     1     1     2   513     0 -7.731198537E+02  1.320830472E+02  2.824660513E+03  2.931529848E+03  6.103515625E-05  0.00000E+00  9.000E+00
      21     1     1     2   514   511  7.756145167E+02 -1.056722465E+02  5.558054732E+02  9.600334506E+02  2.412626389E-05  0.00000E+00  9.000E+00
      22     1     1     2     0     0 -2.494663024E+00 -2.641080075E+01  7.024807024E+01  7.509024646E+01  9.536743164E-07  0.00000E+00  9.000E+00
#rwgt            1         182   4.4607876251360326E-002        6024     4180535           0
<rwgt>
<wgt id='central'>  0.336826775E+03 </wgt>
<wgt id='sudakovwgt'>  0.364213806E-01 </wgt>
<wgt id='scales0.50.5'>  0.454096484E+03 </wgt>
<wgt id='scales0.51.0'>  0.396439961E+03 </wgt>
<wgt id='scales1.00.5'>  0.385813671E+03 </wgt>
<wgt id='scales1.02.0'>  0.296472248E+03 </wgt>
<wgt id='scales2.01.0'>  0.289840599E+03 </wgt>
<wgt id='scales2.02.0'>  0.255115219E+03 </wgt>
</rwgt>
<scales uborns=' 0.783438600E+03'> </scales>
</event>
<event>
      5  10001  3.65334E+03  5.06805E+01  7.29735E-03  1.38741E-01
       1    -1     0     0   511     0  0.000000000E+00  0.000000000E+00  2.021118657E+03  2.021118657E+03  0.000000000E+00  0.00000E+00  9.000E+00
       2    -1     0     0   512     0  0.000000000E+00  0.000000000E+00 -3.194614818E+02  3.194614818E+02  0.000000000E+00  0.00000E+00  9.000E+00
       1     1     1     2   512     0  5.162507460E+02 -6.493246022E+01  1.738954678E+03  1.815129315E+03  0.000000000E+00  0.00000E+00  9.000E+00
      22     1     1     2     0     0 -2.983497663E+02  1.798888167E+01 -4.584307821E+01  3.023867899E+02  1.158233433E-05  0.00000E+00  9.000E+00
       2     1     1     2   511     0 -2.179009797E+02  4.694357854E+01  8.545575707E+00  2.230640343E+02  2.437239683E-06  0.00000E+00  9.000E+00
#rwgt            1          96   5.9190856679975918E-004        6024     4183300           0
<rwgt>
<wgt id='central'>  0.365334063E+04 </wgt>
<wgt id='sudakovwgt'>  0.730965694E-03 </wgt>
<wgt id='scales0.50.5'>  0.469125656E+04 </wgt>
<wgt id='scales0.51.0'>  0.433692247E+04 </wgt>
<wgt id='scales1.00.5'>  0.395182421E+04 </wgt>
<wgt id='scales1.02.0'>  0.339250509E+04 </wgt>
<wgt id='scales2.01.0'>  0.312108713E+04 </wgt>
<wgt id='scales2.02.0'>  0.289825310E+04 </wgt>
</rwgt>
<scales uborns=' 0.521120568E+03'> </scales>
</event>
<event>
      5  10001  6.81049E+01  1.71973E+01  7.29735E-03  1.71967E-01
       2    -1     0     0   512     0  0.000000000E+00  0.000000000E+00  2.821921074E+03  2.821921074E+03  0.000000000E+00  0.00000E+00  9.000E+00
      21    -1     0     0   511   513  0.000000000E+00  0.000000000E+00 -5.318117388E+02  5.318117388E+02  0.000000000E+00  0.00000E+00  9.000E+00
       2     1     1     2   511     0 -5.274262757E+02  8.335303450E+02  1.955303888E+03  2.190014750E+03  2.157918644E-05  0.00000E+00  9.000E+00
      21     1     1     2   512   513  5.666238808E+02 -8.668781351E+02  2.513985700E+02  1.065711764E+03  1.078959322E-05  0.00000E+00  9.000E+00
      22     1     1     2     0     0 -3.919760507E+01  3.334779010E+01  8.340687793E+01  9.800629895E+01  1.348699152E-06  0.00000E+00  9.000E+00
#rwgt            1         182   1.0794893650088741E-002        6024     4194944           0
<rwgt>
<wgt id='central'>  0.681049147E+02 </wgt>
<wgt id='sudakovwgt'>  0.363060690E-02 </wgt>
<wgt id='scales0.50.5'>  0.912078309E+02 </wgt>
<wgt id='scales0.51.0'>  0.797270370E+02 </wgt>
<wgt id='scales1.00.5'>  0.779120916E+02 </wgt>
<wgt id='scales1.02.0'>  0.600543921E+02 </wgt>
<wgt id='scales2.01.0'>  0.588735887E+02 </wgt>
<wgt id='scales2.02.0'>  0.519142908E+02 </wgt>
</rwgt>
<scales uborns=' 0.103669878E+04'> </scales>
</event>
<event>
      5  10001  1.01888E+01  2.65297E+00  7.29735E-03  3.14068E-01
       2    -1     0     0   511     0  0.000000000E+00  0.000000000E+00  2.649959373E+03  2.649959373E+03  0.000000000E+00  0.00000E+00  9.000E+00
      21    -1     0     0   514   515  0.000000000E+00  0.000000000E+00 -1.087228832E+03  1.087228832E+03  0.000000000E+00  0.00000E+00  9.000E+00
       2     1     1     2   514     0 -1.414762616E+03 -3.832557897E+02  1.592186450E+03  2.164138617E+03  4.825252777E-05  0.00000E+00  9.000E+00
      21     1     1     2   511   515  1.417392596E+03  3.836042786E+02 -1.284754105E+02  1.473994554E+03  2.523185073E-05  0.00000E+00  9.000E+00
      22     1     1     2     0     0 -2.629979437E+00 -3.484889348E-01  9.901950116E+01  9.905503443E+01  1.907348633E-06  0.00000E+00  9.000E+00
#rwgt            1         182   7.6501638357738197E-003        6024     4199334           0
<rwgt>
<wgt id='central'>  0.101887668E+02 </wgt>
<wgt id='sudakovwgt'>  0.367720489E+00 </wgt>
<wgt id='scales0.50.5'>  0.137753321E+02 </wgt>
<wgt id='scales0.51.0'>  0.118537835E+02 </wgt>
<wgt id='scales1.00.5'>  0.118404477E+02 </wgt>
<wgt id='scales1.02.0'>  0.885693632E+01 </wgt>
<wgt id='scales2.01.0'>  0.885454596E+01 </wgt>
<wgt id='scales2.02.0'>  0.769709384E+01 </wgt>
</rwgt>
<scales uborns=' 0.146706954E+04'> </scales>
</event>
<event>
      5  10001  6.76538E+01  4.76971E+01  7.29735E-03  1.40254E-01
      21    -1     0     0   512   513  0.000000000E+00  0.000000000E+00  5.962312417E+02  5.962312417E+02  0.000000000E+00  0.00000E+00  9.000E+00
       1    -1     0     0   514     0  0.000000000E+00  0.000000000E+00 -2.518971867E+03  2.518971867E+03  0.000000000E+00  0.00000E+00  9.000E+00
      22     1     1     2     0     0 -1.599238116E+01 -3.484094406E+01 -6.471685643E+01  7.521914081E+01  9.536743164E-07  0.00000E+00  9.000E+00
      21     1     1     2   514   513  3.930335951E+02  9.606153651E+02 -1.331820094E+02  1.046419961E+03  1.972976767E-05  0.00000E+00  9.000E+00
       1     1     1     2   512     0 -3.770412140E+02 -9.257744210E+02 -1.724841760E+03  1.993564007E+03  2.157918644E-05  0.00000E+00  9.000E+00
#rwgt            1         186   3.6573818894870586E-003        6024     4210833           0
<rwgt>
<wgt id='central'>  0.676538134E+02 </wgt>
<wgt id='sudakovwgt'>  0.423563917E-03 </wgt>
<wgt id='scales0.50.5'>  0.916779338E+02 </wgt>
<wgt id='scales0.51.0'>  0.791972145E+02 </wgt>
<wgt id='scales1.00.5'>  0.783153882E+02 </wgt>
<wgt id='scales1.02.0'>  0.590021471E+02 </wgt>
<wgt id='scales2.01.0'>  0.584847288E+02 </wgt>
<wgt id='scales2.02.0'>  0.510056282E+02 </wgt>
</rwgt>
<scales uborns=' 0.103792498E+04'> </scales>
</event>
<event>
      5  10001  2.40550E+06  3.41943E+01  7.29735E-03  1.49194E-01
      -1    -1     0     0     0   511  0.000000000E+00  0.000000000E+00  6.954277084E+01  6.954277084E+01  0.000000000E+00  0.00000E+00  9.000E+00
       1    -1     0     0   511     0  0.000000000E+00  0.000000000E+00 -4.619420575E+02  4.619420575E+02  0.000000000E+00  0.00000E+00  9.000E+00
       1     1     1     2   512     0  1.266216372E+02  1.084155294E+02 -2.204944016E+02  2.764140864E+02  2.697398305E-06  0.00000E+00  9.000E+00
      -1     1     1     2     0   512 -1.363025218E+02 -9.045144236E+01 -1.318051375E+02  2.100772124E+02  3.303624740E-06  0.00000E+00  9.000E+00
      22     1     1     2     0     0  9.680884547E+00 -1.796408707E+01 -4.009974752E+01  4.499352954E+01  8.259061849E-07  0.00000E+00  9.000E+00
#rwgt            1          66   1.0318523210789575E-004        6024     4211098           0
<rwgt>
<wgt id='central'>  0.240549662E+07 </wgt>
<wgt id='sudakovwgt'>  0.281705352E-01 </wgt>
<wgt id='scales0.50.5'>  0.286393703E+07 </wgt>
<wgt id='scales0.51.0'>  0.293731275E+07 </wgt>
<wgt id='scales1.00.5'>  0.234540926E+07 </wgt>
<wgt id='scales1.02.0'>  0.244752115E+07 </wgt>
<wgt id='scales2.01.0'>  0.200767524E+07 </wgt>
<wgt id='scales2.02.0'>  0.204274688E+07 </wgt>
</rwgt>
<scales uborns=' 0.175367079E+03'> </scales>
</event>
<event>
      5  10001  2.57821E+03  8.18528E+00  7.29735E-03  2.06378E-01
      21    -1     0     0   513   511  0.000000000E+00  0.000000000E+00  2.006202808E+02  2.006202808E+02  0.000000000E+00  0.00000E+00  9.000E+00
       2    -1     0     0   512     0  0.000000000E+00  0.000000000E+00 -2.136515991E+03  2.136515991E+03  0.000000000E+00  0.00000E+00  9.000E+00
       2     1     1     2   513     0  2.992126783E+02 -4.615449196E+02 -3.406601433E+02  6.469940285E+02  2.089395742E-05  0.00000E+00  9.000E+00
      21     1     1     2   512   511 -3.046579103E+02  4.586373026E+02 -1.587321800E+03  1.680105685E+03  2.157918644E-05  0.00000E+00  9.000E+00
      22     1     1     2     0     0  5.445232000E+00  2.907617073E+00 -7.913767233E+00  1.003655819E+01  8.429369702E-08  0.00000E+00  9.000E+00
#rwgt            1         187   1.6741768129029933E-003        6024     4213565           0
<rwgt>
<wgt id='central'>  0.257821335E+04 </wgt>
<wgt id='sudakovwgt'>  0.122143568E-02 </wgt>
<wgt id='scales0.50.5'>  0.334542058E+04 </wgt>
<wgt id='scales0.51.0'>  0.305664779E+04 </wgt>
<wgt id='scales1.00.5'>  0.282178300E+04 </wgt>
<wgt id='scales1.02.0'>  0.236514229E+04 </wgt>
<wgt id='scales2.01.0'>  0.220499721E+04 </wgt>
<wgt id='scales2.02.0'>  0.202277244E+04 </wgt>
</rwgt>
<scales uborns=' 0.552867818E+03'> </scales>
</event>
<event>
      4  10001  1.64849E+04  8.94427E-01  7.29735E-03  7.51490E-01
       1    -1     0     0   514     0  0.000000000E+00  0.000000000E+00  1.320126929E+03  1.320126929E+03  0.000000000E+00  0.00000E+00  9.000E+00
      -3    -1     0     0     0   514  0.000000000E+00  0.000000000E+00 -2.177511759E+02  2.177511759E+02  0.000000000E+00  0.00000E+00  9.000E+00
       1     1     1     2   512     0  1.244594008E+02  3.843906178E+02  1.056648318E+03  1.131261224E+03  1.525878906E-05  0.00000E+00  9.000E+00
      -3     1     1     2     0   512 -1.244594008E+02 -3.843906178E+02  4.572743520E+01  4.066168809E+02  2.236564522E-06  0.00000E+00  9.000E+00
#rwgt            1         142   1.3430434059269583E-004        6024     4215060           0
<rwgt>
<wgt id='central'>  0.164849320E+05 </wgt>
<wgt id='sudakovwgt'>  0.375336127E+01 </wgt>
<wgt id='scales0.50.5'>  0.205361087E+05 </wgt>
<wgt id='scales0.51.0'>  0.196839121E+05 </wgt>
<wgt id='scales1.00.5'>  0.171985984E+05 </wgt>
<wgt id='scales1.02.0'>  0.157937905E+05 </wgt>
<wgt id='scales2.01.0'>  0.140146697E+05 </wgt>
<wgt id='scales2.02.0'>  0.134271216E+05 </wgt>
</rwgt>
<scales uborns=' 0.404037485E+03'> </scales>
</event>
<event>
      5  10001  2.32494E+07  1.77111E+01  7.29735E-03  1.70845E-01
      21    -1     0     0   511   513  0.000000000E+00  0.000000000E+00  1.537434796E+02  1.537434796E+02  0.000000000E+00  0.00000E+00  9.000E+00
       2    -1     0     0   512     0  0.000000000E+00  0.000000000E+00 -5.204467013E+02  5.204467013E+02  0.000000000E+00  0.00000E+00  9.000E+00
      22     1     1     2     0     0 -1.697259753E+01  1.708934193E+01 -8.497770895E+01  8.832511361E+01  1.651812370E-06  0.00000E+00  9.000E+00
      21     1     1     2   512   513  8.595454930E+01 -8.383658376E+01  1.218284729E+02  1.710524309E+02  5.394796609E-06  0.00000E+00  9.000E+00
       2     1     1     2   511     0 -6.898195177E+01  6.674724184E+01 -4.035539856E+02  4.148126363E+02  7.629394531E-06  0.00000E+00  9.000E+00
#rwgt            1         187   8.6595792285116355E-003        6024     4220981           0
<rwgt>
<wgt id='central'>  0.232494058E+08 </wgt>
<wgt id='sudakovwgt'>  0.707828641E-03 </wgt>
<wgt id='scales0.50.5'>  0.292157907E+08 </wgt>
<wgt id='scales0.51.0'>  0.287380231E+08 </wgt>
<wgt id='scales1.00.5'>  0.236359197E+08 </wgt>
<wgt id='scales1.02.0'>  0.227390077E+08 </wgt>
<wgt id='scales2.01.0'>  0.192138238E+08 </wgt>
<wgt id='scales2.02.0'>  0.187920242E+08 </wgt>
</rwgt>
<scales uborns=' 0.120095175E+03'> </scales>
</event>
<event>
      5  10001  5.99529E+02  1.00951E+01  7.29735E-03  1.95283E-01
       2    -1     0     0   514     0  0.000000000E+00  0.000000000E+00  2.614945713E+03  2.614945713E+03  0.000000000E+00  0.00000E+00  9.000E+00
       1    -1     0     0   511     0  0.000000000E+00  0.000000000E+00 -4.433190685E+02  4.433190685E+02  0.000000000E+00  0.00000E+00  9.000E+00
       2     1     1     2   511     0 -6.319368127E+02 -3.318264249E+02  2.061881511E+03  2.181927652E+03  4.315837288E-05  0.00000E+00  9.000E+00
       1     1     1     2   514     0  6.261862065E+02  3.235292851E+02 -5.899882291E+01  7.072914708E+02  2.089395742E-05  0.00000E+00  9.000E+00
      22     1     1     2     0     0  5.750606177E+00  8.297139808E+00  1.687439563E+02  1.690456589E+02  1.907348633E-06  0.00000E+00  9.000E+00
#rwgt            1          92   1.6980457972625759E-003        6024     4221783           0
<rwgt>
<wgt id='central'>  0.599529325E+03 </wgt>
<wgt id='sudakovwgt'>  0.694174851E-01 </wgt>
<wgt id='scales0.50.5'>  0.771747554E+03 </wgt>
<wgt id='scales0.51.0'>  0.707054158E+03 </wgt>
<wgt id='scales1.00.5'>  0.654384157E+03 </wgt>
<wgt id='scales1.02.0'>  0.552230578E+03 </wgt>
<wgt id='scales2.01.0'>  0.515021038E+03 </wgt>
<wgt id='scales2.02.0'>  0.474389672E+03 </wgt>
</rwgt>
<scales uborns=' 0.709282666E+03'> </scales>
</event>
<event>
      4  10001  5.29944E+01  8.94427E-01  7.29735E-03  7.51691E-01
       1    -1     0     0   514     0  0.000000000E+00  0.000000000E+00  3.119074766E+03  3.119074766E+03  0.000000000E+00  0.00000E+00  9.000E+00
      21    -1     0     0   513   514  0.000000000E+00  0.000000000E+00 -6.014165896E+02  6.014165896E+02  0.000000000E+00  0.00000E+00  9.000E+00
       1     1     1     2   512     0  1.057430347E+03 -2.391806819E+02  2.395599709E+03  2.629498869E+03  3.051757812E-05  0.00000E+00  9.000E+00
      21     1     1     2   513   512 -1.057430347E+03  2.391806819E+02  1.220584684E+02  1.090992487E+03  2.174712038E-05  0.00000E+00  9.000E+00
#rwgt            1         181   2.1338073277522140E-003        6024     4245752           0
<rwgt>
<wgt id='central'>  0.529943569E+02 </wgt>
<wgt id='sudakovwgt'>  0.293759663E+01 </wgt>
<wgt id='scales0.50.5'>  0.732205812E+02 </wgt>
<wgt id='scales0.51.0'>  0.619865588E+02 </wgt>
<wgt id='scales1.00.5'>  0.625987446E+02 </wgt>
<wgt id='scales1.02.0'>  0.453693992E+02 </wgt>
<wgt id='scales2.01.0'>  0.458435874E+02 </wgt>
<wgt id='scales2.02.0'>  0.392474680E+02 </wgt>
</rwgt>
<scales uborns=' 0.108414314E+04'> </scales>
</event>
<event>
      5  10001  1.19208E+03  1.79351E+02  7.29735E-03  1.13398E-01
      21    -1     0     0   511   515  0.000000000E+00  0.000000000E+00  1.802606478E+03  1.802606478E+03  0.000000000E+00  0.00000E+00  9.000E+00
       2    -1     0     0   512     0  0.000000000E+00  0.000000000E+00 -2.357240493E+02  2.357240493E+02  0.000000000E+00  0.00000E+00  9.000E+00
      22     1     1     2     0     0 -4.249841252E+02  4.530608685E+01  5.486120836E+02  6.954418498E+02  1.078959322E-05  0.00000E+00  9.000E+00
      21     1     1     2   512   515  5.858205981E+02 -1.688932048E+02  5.073135663E+02  7.931442128E+02  1.078959322E-05  0.00000E+00  9.000E+00
       2     1     1     2   511     0 -1.608364728E+02  1.235871179E+02  5.109567782E+02  5.497444642E+02  7.629394531E-06  0.00000E+00  9.000E+00
#rwgt            1         187   2.4882316801779446E-004        6024     4246996           0
<rwgt>
<wgt id='central'>  0.119207745E+04 </wgt>
<wgt id='sudakovwgt'>  0.515408659E-03 </wgt>
<wgt id='scales0.50.5'>  0.157737048E+04 </wgt>
<wgt id='scales0.51.0'>  0.140931945E+04 </wgt>
<wgt id='scales1.00.5'>  0.133422681E+04 </wgt>
<wgt id='scales1.02.0'>  0.107310046E+04 </wgt>
<wgt id='scales2.01.0'>  0.102193758E+04 </wgt>
<wgt id='scales2.02.0'>  0.919939681E+03 </wgt>
</rwgt>
<scales uborns=' 0.630488010E+03'> </scales>
</event>
<event>
      4  10001  7.19108E+02  8.94427E-01  7.29735E-03  7.45934E-01
      -1    -1     0     0     0   513  0.000000000E+00  0.000000000E+00  2.214551816E+02  2.214551816E+02  0.000000000E+00  0.00000E+00  9.000E+00
      21    -1     0     0   511   514  0.000000000E+00  0.000000000E+00 -2.325966580E+03  2.325966580E+03  0.000000000E+00  0.00000E+00  9.000E+00
      -1     1     1     2     0   514  5.693917024E+02 -3.852387337E+02 -1.418041146E+03  1.575898627E+03  1.525878906E-05  0.00000E+00  9.000E+00
      21     1     1     2   511   513 -5.693917024E+02  3.852387337E+02 -6.864702527E+02  9.715231344E+02  1.525878906E-05  0.00000E+00  9.000E+00
#rwgt            1         191   8.2011968684920442E-005        6024     4247170           0
<rwgt>
<wgt id='central'>  0.719108400E+03 </wgt>
<wgt id='sudakovwgt'>  0.205177680E+01 </wgt>
<wgt id='scales0.50.5'>  0.977961193E+03 </wgt>
<wgt id='scales0.51.0'>  0.848623526E+03 </wgt>
<wgt id='scales1.00.5'>  0.828706366E+03 </wgt>
<wgt id='scales1.02.0'>  0.630200189E+03 </wgt>
<wgt id='scales2.01.0'>  0.617410042E+03 </wgt>
<wgt id='scales2.02.0'>  0.541075784E+03 </wgt>
</rwgt>
<scales uborns=' 0.687470576E+03'> </scales>
</event>
<event>
      5  10001  1.64664E+01  3.60213E+02  7.29735E-03  1.03074E-01
       2    -1     0     0   512     0  0.000000000E+00  0.000000000E+00  1.452599993E+03  1.452599993E+03  0.000000000E+00  0.00000E+00  9.000E+00
       2    -1     0     0   513     0  0.000000000E+00  0.000000000E+00 -1.507126305E+03  1.507126305E+03  0.000000000E+00  0.00000E+00  9.000E+00
       2     1     1     2   512     0  2.817657476E+02 -1.276339166E+03 -6.361415731E+02  1.453653915E+03  1.868812365E-05  0.00000E+00  9.000E+00
      22     1     1     2     0     0 -3.047854941E+02  8.816445536E+02  1.948177738E+02  9.529665688E+02  9.725607898E-06  0.00000E+00  9.000E+00
       2     1     1     2   513     0  2.301974643E+01  3.946946123E+02  3.867974870E+02  5.531058142E+02  9.344061824E-06  0.00000E+00  9.000E+00
#rwgt            1          97   3.1542811291071920E-003        6024     4248360           0
<rwgt>
<wgt id='central'>  0.164664062E+02 </wgt>
<wgt id='sudakovwgt'>  0.542125835E-02 </wgt>
<wgt id='scales0.50.5'>  0.208973334E+02 </wgt>
<wgt id='scales0.51.0'>  0.191870661E+02 </wgt>
<wgt id='scales1.00.5'>  0.179341567E+02 </wgt>
<wgt id='scales1.02.0'>  0.151963850E+02 </wgt>
<wgt id='scales2.01.0'>  0.142910121E+02 </wgt>
<wgt id='scales2.02.0'>  0.131887797E+02 </wgt>
</rwgt>
<scales uborns=' 0.134099658E+04'> </scales>
</event>
<event>
      5  10001  8.91134E+04  8.28041E+00  7.29735E-03  2.05733E-01
      21    -1     0     0   513   514  0.000000000E+00  0.000000000E+00  3.335898632E+02  3.335898632E+02  0.000000000E+00  0.00000E+00  9.000E+00
       1    -1     0     0   514     0  0.000000000E+00  0.000000000E+00 -4.201268193E+02  4.201268193E+02  0.000000000E+00  0.00000E+00  9.000E+00
       1     1     1     2   511     0 -3.060739827E+02  7.168753866E+00 -1.091767189E+02  3.250418894E+02  6.607249480E-06  0.00000E+00  9.000E+00
      21     1     1     2   513   511  3.021867650E+02 -1.448002639E+01  1.240126437E+02  3.269642915E+02  3.568322551E-06  0.00000E+00  9.000E+00
      22     1     1     2     0     0  3.887217684E+00  7.311272525E+00 -1.013728809E+02  1.017105016E+02  1.348699152E-06  0.00000E+00  9.000E+00
#rwgt            1         186   2.2881854949225997E-003        6024     4253578           0
<rwgt>
<wgt id='central'>  0.891133796E+05 </wgt>
<wgt id='sudakovwgt'>  0.250772249E-01 </wgt>
<wgt id='scales0.50.5'>  0.112578664E+06 </wgt>
<wgt id='scales0.51.0'>  0.107153740E+06 </wgt>
<wgt id='scales1.00.5'>  0.936249870E+05 </wgt>
<wgt id='scales1.02.0'>  0.848413745E+05 </wgt>
<wgt id='scales2.01.0'>  0.753207584E+05 </wgt>
<wgt id='scales2.02.0'>  0.717099412E+05 </wgt>
</rwgt>
<scales uborns=' 0.304318235E+03'> </scales>
</event>
<event>
      5  10001  1.46698E+05  3.29146E+02  7.29735E-03  1.04300E-01
      21    -1     0     0   511   514  0.000000000E+00  0.000000000E+00  9.042746551E+01  9.042746551E+01  0.000000000E+00  0.00000E+00  9.000E+00
       2    -1     0     0   514     0  0.000000000E+00  0.000000000E+00 -1.726385896E+03  1.726385896E+03  0.000000000E+00  0.00000E+00  9.000E+00
       2     1     1     2   512     0  1.157056396E+02 -1.136648195E+02 -3.168747715E+02  3.559734639E+02  3.814697266E-06  0.00000E+00  9.000E+00
      21     1     1     2   511   512 -1.750644278E+02  1.799888816E+02 -1.586708421E+02  2.970184970E+02  4.672030912E-06  0.00000E+00  9.000E+00
      22     1     1     2     0     0  5.935878826E+01 -6.632406212E+01 -1.160412817E+03  1.163821401E+03  1.525878906E-05  0.00000E+00  9.000E+00
#rwgt            1         187   1.8726910650938334E-002        6024     4253931           0
<rwgt>
<wgt id='central'>  0.146697532E+06 </wgt>
<wgt id='sudakovwgt'>  0.860065457E-01 </wgt>
<wgt id='scales0.50.5'>  0.185822469E+06 </wgt>
<wgt id='scales0.51.0'>  0.176779467E+06 </wgt>
<wgt id='scales1.00.5'>  0.154202211E+06 </wgt>
<wgt id='scales1.02.0'>  0.139403383E+06 </wgt>
<wgt id='scales2.01.0'>  0.123770186E+06 </wgt>
<wgt id='scales2.02.0'>  0.117615664E+06 </wgt>
</rwgt>
<scales uborns=' 0.279934014E+03'> </scales>
</event>
<event>
      5  10001  3.84671E+08  2.73528E+00  7.29735E-03  3.09598E-01
       1    -1     0     0   511     0  0.000000000E+00  0.000000000E+00  1.159125575E+02  1.159125575E+02  0.000000000E+00  0.00000E+00  9.000E+00
      -1    -1     0     0     0   511  0.000000000E+00  0.000000000E+00 -1.461201350E+02  1.461201350E+02  0.000000000E+00  0.00000E+00  9.000E+00
       1     1     1     2   513     0 -3.245058233E+01  6.845370742E+01  9.008411096E+01  1.177034299E+02  2.132480600E-06  0.00000E+00  9.000E+00
      -1     1     1     2     0   513  2.971629368E+01 -6.852717595E+01 -1.053662077E+02  1.291552154E+02  2.336015456E-06  0.00000E+00  9.000E+00
      22     1     1     2     0     0  2.734288645E+00  7.346853061E-02 -1.492548084E+01  1.517404726E+01  2.384185791E-07  0.00000E+00  9.000E+00
#rwgt            1          41   6.3269929296177221E-005        6024     4254533           0
<rwgt>
<wgt id='central'>  0.384671295E+09 </wgt>
<wgt id='sudakovwgt'>  0.287551958E-01 </wgt>
<wgt id='scales0.50.5'>  0.453078505E+09 </wgt>
<wgt id='scales0.51.0'>  0.483834317E+09 </wgt>
<wgt id='scales1.00.5'>  0.360218685E+09 </wgt>
<wgt id='scales1.02.0'>  0.404317668E+09 </wgt>
<wgt id='scales2.01.0'>  0.313526965E+09 </wgt>
<wgt id='scales2.02.0'>  0.329540026E+09 </wgt>
</rwgt>
<scales uborns=' 0.752131332E+02'> </scales>
</event>
<event>
      4  10001  4.01808E+07  8.94427E-01  7.29735E-03  7.51642E-01
      21    -1     0     0   513   514  0.000000000E+00  0.000000000E+00  3.551068321E+01  3.551068321E+01  0.000000000E+00  0.00000E+00  9.000E+00
      -1    -1     0     0     0   512  0.000000000E+00  0.000000000E+00 -1.882429518E+03  1.882429518E+03  0.000000000E+00  0.00000E+00  9.000E+00
      -1     1     1     2     0   514  6.791408081E+01 -8.604843838E+01 -1.791968039E+03  1.795317830E+03  2.157918644E-05  0.00000E+00  9.000E+00
      21     1     1     2   513   512 -6.791408081E+01  8.604843838E+01 -5.495079603E+01  1.226223720E+02  3.162979880E-06  0.00000E+00  9.000E+00
#rwgt            1         196   1.0307776889341565E-003        6024     4257660           0
<rwgt>
<wgt id='central'>  0.401807968E+08 </wgt>
<wgt id='sudakovwgt'>  0.136267415E+01 </wgt>
<wgt id='scales0.50.5'>  0.514702238E+08 </wgt>
<wgt id='scales0.51.0'>  0.498245639E+08 </wgt>
<wgt id='scales1.00.5'>  0.415079352E+08 </wgt>
<wgt id='scales1.02.0'>  0.387012432E+08 </wgt>
<wgt id='scales2.01.0'>  0.331218224E+08 </wgt>
<wgt id='scales2.02.0'>  0.319021947E+08 </wgt>
</rwgt>
<scales uborns=' 0.109620510E+03'> </scales>
</event>
<event>
      5  10001  1.06188E+05  2.59707E+00  7.29735E-03  3.17266E-01
      21    -1     0     0   511   514  0.000000000E+00  0.000000000E+00  3.676554283E+02  3.676554283E+02  0.000000000E+00  0.00000E+00  9.000E+00
       2    -1     0     0   515     0  0.000000000E+00  0.000000000E+00 -4.043531163E+02  4.043531163E+02  0.000000000E+00  0.00000E+00  9.000E+00
       2     1     1     2   511     0  2.702377696E+02 -4.071710207E+00 -2.405671553E+02  3.618253545E+02  9.725607898E-06  0.00000E+00  9.000E+00
      21     1     1     2   515   514 -2.954516951E+02  3.560340581E+00  2.295708868E+02  3.741753228E+02  9.344061824E-06  0.00000E+00  9.000E+00
      22     1     1     2     0     0  2.521392547E+01  5.113696264E-01 -2.570141959E+01  3.600786727E+01  7.539457465E-07  0.00000E+00  9.000E+00
#rwgt            1         187   4.2446046166040785E-003        6024     4258739           0
<rwgt>
<wgt id='central'>  0.106188375E+06 </wgt>
<wgt id='sudakovwgt'>  0.259229241E+00 </wgt>
<wgt id='scales0.50.5'>  0.134768821E+06 </wgt>
<wgt id='scales0.51.0'>  0.127781805E+06 </wgt>
<wgt id='scales1.00.5'>  0.111994282E+06 </wgt>
<wgt id='scales1.02.0'>  0.100787664E+06 </wgt>
<wgt id='scales2.01.0'>  0.896963380E+05 </wgt>
<wgt id='scales2.02.0'>  0.851347081E+05 </wgt>
</rwgt>
<scales uborns=' 0.295506908E+03'> </scales>
</event>
<event>
      4  10001  1.17754E+07  8.94427E-01  7.29735E-03  7.52354E-01
       3    -1     0     0   513     0  0.000000000E+00  0.000000000E+00  2.669833441E+01  2.669833441E+01  0.000000000E+00  0.00000E+00  9.000E+00
      21    -1     0     0   512   511  0.000000000E+00  0.000000000E+00 -9.968498534E+02  9.968498534E+02  0.000000000E+00  0.00000E+00  9.000E+00
       3     1     1     2   512     0 -4.164312969E+01 -1.279211870E+02 -1.955777710E+02  2.373786950E+02  0.000000000E+00  0.00000E+00  9.000E+00
      21     1     1     2   513   511  4.164312969E+01  1.279211870E+02 -7.745737480E+02  7.861694928E+02  0.000000000E+00  0.00000E+00  9.000E+00
#rwgt            1         183   4.4364537117028130E-004        6024     4261193           0
<rwgt>
<wgt id='central'>  0.117753506E+08 </wgt>
<wgt id='sudakovwgt'>  0.156524402E+01 </wgt>
<wgt id='scales0.50.5'>  0.147611005E+08 </wgt>
<wgt id='scales0.51.0'>  0.144998236E+08 </wgt>
<wgt id='scales1.00.5'>  0.119875847E+08 </wgt>
<wgt id='scales1.02.0'>  0.114963218E+08 </wgt>
<wgt id='scales2.01.0'>  0.976140645E+07 </wgt>
<wgt id='scales2.02.0'>  0.953006012E+07 </wgt>
</rwgt>
<scales uborns=' 0.134528734E+03'> </scales>
</event>
<event>
      5  10001  8.53568E+03  3.86799E+01  7.29735E-03  1.45750E-01
      21    -1     0     0   514   512  0.000000000E+00  0.000000000E+00  6.106466159E+01  6.106466159E+01  0.000000000E+00  0.00000E+00  9.000E+00
       2    -1     0     0   515     0  0.000000000E+00  0.000000000E+00 -3.442824831E+03  3.442824831E+03  0.000000000E+00  0.00000E+00  9.000E+00
      22     1     1     2     0     0  1.790386765E+02  3.419898544E+00 -5.308915528E+02  5.602788451E+02  0.000000000E+00  0.00000E+00  9.000E+00
      21     1     1     2   515   512 -4.487166286E+02 -4.447438780E+01 -1.994912432E+03  2.045238420E+03  0.000000000E+00  0.00000E+00  9.000E+00
       2     1     1     2   514     0  2.696779521E+02  4.105448925E+01 -8.559561849E+02  8.983722277E+02  0.000000000E+00  0.00000E+00  9.000E+00
#rwgt            1         187   1.6137992087802186E-002        6024     4262580           0
<rwgt>
<wgt id='central'>  0.853567550E+04 </wgt>
<wgt id='sudakovwgt'>  0.108463283E+00 </wgt>
<wgt id='scales0.50.5'>  0.110887876E+05 </wgt>
<wgt id='scales0.51.0'>  0.101656963E+05 </wgt>
<wgt id='scales1.00.5'>  0.931075845E+04 </wgt>
<wgt id='scales1.02.0'>  0.784467395E+04 </wgt>
<wgt id='scales2.01.0'>  0.727235388E+04 </wgt>
<wgt id='scales2.02.0'>  0.668362040E+04 </wgt>
</rwgt>
<scales uborns=' 0.451447666E+03'> </scales>
</event>
<event>
      5  10001  5.38032E+04  1.41753E+01  7.29735E-03  1.79729E-01
      -2    -1     0     0     0   511  0.000000000E+00  0.000000000E+00  3.971287423E+02  3.971287423E+02  0.000000000E+00  0.00000E+00  9.000E+00
      -2    -1     0     0     0   513  0.000000000E+00  0.000000000E+00 -3.008409384E+02  3.008409384E+02  0.000000000E+00  0.00000E+00  9.000E+00
      -2     1     1     2     0   511  1.077773529E+02 -3.128363122E+02 -5.167642089E+01  3.348924731E+02  2.132480600E-06  0.00000E+00  9.000E+00
      -2     1     1     2     0   513 -7.467250430E+01  2.133719094E+02  1.117113069E+02  2.521566392E+02  4.046097457E-06  0.00000E+00  9.000E+00
      22     1     1     2     0     0 -3.310484859E+01  9.946440285E+01  3.625291796E+01  1.109205684E+02  3.269030857E-06  0.00000E+00  9.000E+00
#rwgt            1         122   1.8908999412505461E-005        6024     4263509           0
<rwgt>
<wgt id='central'>  0.538032325E+05 </wgt>
<wgt id='sudakovwgt'>  0.989895519E-03 </wgt>
<wgt id='scales0.50.5'>  0.659468873E+05 </wgt>
<wgt id='scales0.51.0'>  0.645564186E+05 </wgt>
<wgt id='scales1.00.5'>  0.549620571E+05 </wgt>
<wgt id='scales1.02.0'>  0.525594748E+05 </wgt>
<wgt id='scales2.01.0'>  0.455567639E+05 </wgt>
<wgt id='scales2.02.0'>  0.445036649E+05 </wgt>
</rwgt>
<scales uborns=' 0.331192684E+03'> </scales>
</event>
<event>
      5  10001  1.10416E+04  4.82669E+00  7.29735E-03  2.45618E-01
       3    -1     0     0   513     0  0.000000000E+00  0.000000000E+00  3.840757300E+02  3.840757300E+02  0.000000000E+00  0.00000E+00  9.000E+00
      21    -1     0     0   512   514  0.000000000E+00  0.000000000E+00 -1.072528122E+03  1.072528122E+03  0.000000000E+00  0.00000E+00  9.000E+00
       3     1     1     2   512     0  9.801358363E+01 -2.153139338E+02  1.061525217E+02  2.592973400E+02  3.814697266E-06  0.00000E+00  9.000E+00
      21     1     1     2   513   514 -1.746848153E+02  3.953856670E+02 -8.825653455E+02  9.827340431E+02  1.525878906E-05  0.00000E+00  9.000E+00
      22     1     1     2     0     0  7.667123169E+01 -1.800717332E+02  8.796043172E+01  2.145724689E+02  2.336015456E-06  0.00000E+00  9.000E+00
#rwgt            1         183   3.4322048581047760E-004        6024     4264264           0
<rwgt>
<wgt id='central'>  0.110416052E+05 </wgt>
<wgt id='sudakovwgt'>  0.335345870E-01 </wgt>
<wgt id='scales0.50.5'>  0.144057303E+05 </wgt>
<wgt id='scales0.51.0'>  0.131633888E+05 </wgt>
<wgt id='scales1.00.5'>  0.120836902E+05 </wgt>
<wgt id='scales1.02.0'>  0.101274239E+05 </wgt>
<wgt id='scales2.01.0'>  0.939948209E+04 </wgt>
<wgt id='scales2.02.0'>  0.862126315E+04 </wgt>
</rwgt>
<scales uborns=' 0.432262645E+03'> </scales>
</event>
<event>
      5  10001  1.44356E+01  2.47766E+01  7.29735E-03  1.59043E-01
      -2    -1     0     0     0   511  0.000000000E+00  0.000000000E+00  5.835993077E+02  5.835993077E+02  0.000000000E+00  0.00000E+00  9.000E+00
       2    -1     0     0   512     0  0.000000000E+00  0.000000000E+00 -3.306282748E+03  3.306282748E+03  0.000000000E+00  0.00000E+00  9.000E+00
      21     1     1     2   515   511 -5.902724365E+02 -1.240685848E+03 -1.234536621E+03  1.847106816E+03  3.051757812E-05  0.00000E+00  9.000E+00
      21     1     1     2   512   515  6.128214946E+02  1.230418499E+03 -1.459459135E+03  2.004869281E+03  2.157918644E-05  0.00000E+00  9.000E+00
      22     1     1     2     0     0 -2.254905816E+01  1.026734829E+01 -2.868768372E+01  3.790595813E+01  8.259061849E-07  0.00000E+00  9.000E+00
#rwgt            1          37   5.5424563710677024E-005        6024     4265067           0
<rwgt>
<wgt id='central'>  0.144355837E+02 </wgt>
<wgt id='sudakovwgt'>  0.450822665E-01 </wgt>
<wgt id='scales0.50.5'>  0.188311150E+02 </wgt>
<wgt id='scales0.51.0'>  0.168135454E+02 </wgt>
<wgt id='scales1.00.5'>  0.161678240E+02 </wgt>
<wgt id='scales1.02.0'>  0.129801268E+02 </wgt>
<wgt id='scales2.01.0'>  0.125330825E+02 </wgt>
<wgt id='scales2.02.0'>  0.112694312E+02 </wgt>
</rwgt>
<scales uborns=' 0.137420807E+04'> </scales>
</event>
<event>
      5  10001  4.01887E+03  1.98791E+01  7.29735E-03  1.66586E-01
      21    -1     0     0   514   512  0.000000000E+00  0.000000000E+00  1.266063029E+03  1.266063029E+03  0.000000000E+00  0.00000E+00  9.000E+00
      -2    -1     0     0     0   513  0.000000000E+00  0.000000000E+00 -8.138633208E+02  8.138633208E+02  0.000000000E+00  0.00000E+00  9.000E+00
      22     1     1     2     0     0 -2.502346510E+01 -1.051998336E+02 -1.386722966E+02  1.758498923E+02  1.907348633E-06  0.00000E+00  9.000E+00
      21     1     1     2   514   513  1.359300633E+02  4.944091287E+02  1.123594880E+03  1.235063894E+03  0.000000000E+00  0.00000E+00  9.000E+00
      -2     1     1     2     0   512 -1.109065982E+02 -3.892092951E+02 -5.327228748E+02  6.690125636E+02  1.078959322E-05  0.00000E+00  9.000E+00
#rwgt            1         197   5.0626546887050968E-004        6024     4265185           0
<rwgt>
<wgt id='central'>  0.401887373E+04 </wgt>
<wgt id='sudakovwgt'>  0.637237468E-03 </wgt>
<wgt id='scales0.50.5'>  0.547409344E+04 </wgt>
<wgt id='scales0.51.0'>  0.477255894E+04 </wgt>
<wgt id='scales1.00.5'>  0.460961723E+04 </wgt>
<wgt id='scales1.02.0'>  0.353730720E+04 </wgt>
<wgt id='scales2.01.0'>  0.343233031E+04 </wgt>
<wgt id='scales2.02.0'>  0.302104988E+04 </wgt>
</rwgt>
<scales uborns=' 0.512767591E+03'> </scales>
</event>
<event>
      5  10001  1.23267E+03  3.67657E+00  7.29735E-03  2.72407E-01
      -1    -1     0     0     0   511  0.000000000E+00  0.000000000E+00  4.821244993E+02  4.821244993E+02  0.000000000E+00  0.00000E+00  9.000E+00
      21    -1     0     0   511   512  0.000000000E+00  0.000000000E+00 -3.224401855E+03  3.224401855E+03  0.000000000E+00  0.00000E+00  9.000E+00
      -1     1     1     2     0   513  3.886593544E+02  4.897096058E+02  2.262906959E+02  6.648902698E+02  2.942514156E-05  0.00000E+00  9.000E+00
      21     1     1     2   513   512 -3.896573504E+02 -4.932481300E+02 -2.971295458E+03  3.037058324E+03  4.315837288E-05  0.00000E+00  9.000E+00
      22     1     1     2     0     0  9.979960194E-01  3.538524234E+00  2.727405769E+00  4.577760592E+00  9.424321831E-08  0.00000E+00  9.000E+00
#rwgt            1         191   1.0956390960599081E-004        6024     4266719           0
<rwgt>
<wgt id='central'>  0.123266565E+04 </wgt>
<wgt id='sudakovwgt'>  0.316393713E-01 </wgt>
<wgt id='scales0.50.5'>  0.182002086E+04 </wgt>
<wgt id='scales0.51.0'>  0.145748214E+04 </wgt>
<wgt id='scales1.00.5'>  0.153928824E+04 </wgt>
<wgt id='scales1.02.0'>  0.100895249E+04 </wgt>
<wgt id='scales2.01.0'>  0.105662690E+04 </wgt>
<wgt id='scales2.02.0'>  0.864859492E+03 </wgt>
</rwgt>
<scales uborns=' 0.626893107E+03'> </scales>
</event>
<event>
      4  10001  4.20728E+05  8.94427E-01  7.29735E-03  7.37140E-01
       1    -1     0     0   512     0  0.000000000E+00  0.000000000E+00  7.554287935E+02  7.554287935E+02  0.000000000E+00  0.00000E+00  9.000E+00
      21    -1     0     0   514   515  0.000000000E+00  0.000000000E+00 -1.227926982E+02  1.227926982E+02  0.000000000E+00  0.00000E+00  9.000E+00
       1     1     1     2   514     0  2.032701149E+02  1.172876331E+02  5.962040081E+02  6.407295434E+02  7.629394531E-06  0.00000E+00  9.000E+00
      21     1     1     2   512   515 -2.032701149E+02 -1.172876331E+02  3.643208723E+01  2.374919483E+02  1.719260824E-06  0.00000E+00  9.000E+00
#rwgt            1         181   3.8936024033509016E-003        6024     4267214           0
<rwgt>
<wgt id='central'>  0.420728385E+06 </wgt>
<wgt id='sudakovwgt'>  0.150039026E+01 </wgt>
<wgt id='scales0.50.5'>  0.527333097E+06 </wgt>
<wgt id='scales0.51.0'>  0.509422153E+06 </wgt>
<wgt id='scales1.00.5'>  0.435520517E+06 </wgt>
<wgt id='scales1.02.0'>  0.405343802E+06 </wgt>
<wgt id='scales2.01.0'>  0.353581388E+06 </wgt>
<wgt id='scales2.02.0'>  0.340652450E+06 </wgt>
</rwgt>
<scales uborns=' 0.234680908E+03'> </scales>
</event>
<event>
      5  10001  1.08275E+04  1.00591E+00  7.29735E-03  6.47741E-01
       1    -1     0     0   514     0  0.000000000E+00  0.000000000E+00  3.597714912E+02  3.597714912E+02  0.000000000E+00  0.00000E+00  9.000E+00
      21    -1     0     0   511   513  0.000000000E+00  0.000000000E+00 -5.688975368E+02  5.688975368E+02  0.000000000E+00  0.00000E+00  9.000E+00
       1     1     1     2   511     0 -2.575410899E+02 -3.478425776E+02  2.675301222E+01  4.336330193E+02  1.048499748E-05  0.00000E+00  9.000E+00
      21     1     1     2   514   513  2.575775242E+02  3.486934155E+02 -2.366395321E+02  4.938942672E+02  7.136645101E-06  0.00000E+00  9.000E+00
      22     1     1     2     0     0 -3.643431500E-02 -8.508378493E-01  7.604742687E-01  1.141741485E+00  1.053671213E-08  0.00000E+00  9.000E+00
#rwgt            1         181   1.5720320274571285E-003        6024     4268125           0
<rwgt>
<wgt id='central'>  0.108275046E+05 </wgt>
<wgt id='sudakovwgt'>  0.406445985E-01 </wgt>
<wgt id='scales0.50.5'>  0.138762212E+05 </wgt>
<wgt id='scales0.51.0'>  0.129071545E+05 </wgt>
<wgt id='scales1.00.5'>  0.116404266E+05 </wgt>
<wgt id='scales1.02.0'>  0.101038714E+05 </wgt>
<wgt id='scales2.01.0'>  0.921781512E+04 </wgt>
<wgt id='scales2.02.0'>  0.860176577E+04 </wgt>
</rwgt>
<scales uborns=' 0.433692207E+03'> </scales>
</event>
<event>
      5  10001  5.22124E+02  1.12599E+03  7.29735E-03  8.97709E-02
       2    -1     0     0   512     0  0.000000000E+00  0.000000000E+00  1.368906617E+03  1.368906617E+03  0.000000000E+00  0.00000E+00  9.000E+00
      -4    -1     0     0     0   512  0.000000000E+00  0.000000000E+00 -3.855426025E+02  3.855426025E+02  0.000000000E+00  0.00000E+00  9.000E+00
      22     1     1     2     0     0 -1.019818966E+01 -8.328372952E+01 -7.154643723E+01  1.102681974E+02  2.336015456E-06  0.00000E+00  9.000E+00
      -4     1     1     2     0   514 -5.900544852E+02 -1.428438833E+02  3.972898423E+02  7.255397227E+02  1.321449896E-05  0.00000E+00  9.000E+00
       2     1     1     2   514     0  6.002526748E+02  2.261276129E+02  6.576206096E+02  9.186412995E+02  2.412626389E-05  0.00000E+00  9.000E+00
#rwgt            1         147   9.5702801035147826E-005        6024     4269072           0
<rwgt>
<wgt id='central'>  0.522124385E+03 </wgt>
<wgt id='sudakovwgt'>  0.297799638E-02 </wgt>
<wgt id='scales0.50.5'>  0.628658328E+03 </wgt>
<wgt id='scales0.51.0'>  0.615468181E+03 </wgt>
<wgt id='scales1.00.5'>  0.533313681E+03 </wgt>
<wgt id='scales1.02.0'>  0.509256058E+03 </wgt>
<wgt id='scales2.01.0'>  0.448710643E+03 </wgt>
<wgt id='scales2.02.0'>  0.437652001E+03 </wgt>
</rwgt>
<scales uborns=' 0.726352841E+03'> </scales>
</event>
<event>
      5  10001  3.30993E+04  1.71282E+02  7.29735E-03  1.14155E-01
       2    -1     0     0   513     0  0.000000000E+00  0.000000000E+00  1.140994984E+03  1.140994984E+03  0.000000000E+00  0.00000E+00  9.000E+00
      21    -1     0     0   511   512  0.000000000E+00  0.000000000E+00 -2.275389436E+02  2.275389436E+02  0.000000000E+00  0.00000E+00  9.000E+00
       2     1     1     2   511     0 -1.542152558E+02 -3.250027127E+02  4.173728749E+02  5.510074637E+02  0.000000000E+00  0.00000E+00  9.000E+00
      21     1     1     2   513   512  2.988197547E+02  2.332044160E+02  1.092639337E+02  3.944821322E+02  2.336015456E-06  0.00000E+00  9.000E+00
      22     1     1     2     0     0 -1.446044989E+02  9.179829664E+01  3.868192314E+02  4.230443312E+02  0.000000000E+00  0.00000E+00  9.000E+00
#rwgt            1         182   5.6740578550783403E-003        6024     4269240           0
<rwgt>
<wgt id='central'>  0.330992683E+05 </wgt>
<wgt id='sudakovwgt'>  0.202279153E-01 </wgt>
<wgt id='scales0.50.5'>  0.414266016E+05 </wgt>
<wgt id='scales0.51.0'>  0.396343496E+05 </wgt>
<wgt id='scales1.00.5'>  0.345960393E+05 </wgt>
<wgt id='scales1.02.0'>  0.316536396E+05 </wgt>
<wgt id='scales2.01.0'>  0.280732727E+05 </wgt>
<wgt id='scales2.02.0'>  0.268471314E+05 </wgt>
</rwgt>
<scales uborns=' 0.359341670E+03'> </scales>
</event>
<event>
      5  10001  8.18161E+04  1.37514E+00  7.29735E-03  4.76502E-01
       1    -1     0     0   513     0  0.000000000E+00  0.000000000E+00  9.494256301E+02  9.494256301E+02  0.000000000E+00  0.00000E+00  9.000E+00
      -3    -1     0     0     0   513  0.000000000E+00  0.000000000E+00 -1.541229753E+02  1.541229753E+02  0.000000000E+00  0.00000E+00  9.000E+00
       1     1     1     2   514     0  1.670914462E+02 -2.595557709E+02  7.234418229E+02  7.865474053E+02  1.525878906E-05  0.00000E+00  9.000E+00
      -3     1     1     2     0   514 -1.599070742E+02  2.471804038E+02  6.964785891E+01  3.025214846E+02  6.538061715E-06  0.00000E+00  9.000E+00
      22     1     1     2     0     0 -7.184372016E+00  1.237536702E+01  2.212972956E+00  1.447971545E+01  2.230201594E-07  0.00000E+00  9.000E+00
#rwgt            1         142   1.1536237298642266E-004        6024     4269565           0
<rwgt>
<wgt id='central'>  0.818161208E+05 </wgt>
<wgt id='sudakovwgt'>  0.658263571E-01 </wgt>
<wgt id='scales0.50.5'>  0.100184238E+06 </wgt>
<wgt id='scales0.51.0'>  0.983430328E+05 </wgt>
<wgt id='scales1.00.5'>  0.833478832E+05 </wgt>
<wgt id='scales1.02.0'>  0.800681786E+05 </wgt>
<wgt id='scales2.01.0'>  0.691739346E+05 </wgt>
<wgt id='scales2.02.0'>  0.676961008E+05 </wgt>
</rwgt>
<scales uborns=' 0.308708290E+03'> </scales>
</event>
<event>
      5  10001  9.15358E+05  1.03319E+01  7.29735E-03  1.94132E-01
      21    -1     0     0   512   514  0.000000000E+00  0.000000000E+00  8.209616348E+01  8.209616348E+01  0.000000000E+00  0.00000E+00  9.000E+00
       2    -1     0     0   514     0  0.000000000E+00  0.000000000E+00 -8.201159896E+02  8.201159896E+02  0.000000000E+00  0.00000E+00  9.000E+00
       2     1     1     2   511     0 -2.697952838E+01  5.563398197E+01 -1.964481447E+02  2.059488005E+02  0.000000000E+00  0.00000E+00  9.000E+00
      21     1     1     2   512   511  9.859238532E+01 -1.809285563E+02 -9.489051519E+01  2.268475497E+02  5.394796609E-06  0.00000E+00  9.000E+00
      22     1     1     2     0     0 -7.161285694E+01  1.252945744E+02 -4.466811663E+02  4.694158029E+02  0.000000000E+00  0.00000E+00  9.000E+00
#rwgt            1         187   9.7800375990030261E-003        6024     4274871           0
<rwgt>
<wgt id='central'>  0.915357533E+06 </wgt>
<wgt id='sudakovwgt'>  0.638941746E-03 </wgt>
<wgt id='scales0.50.5'>  0.112402080E+07 </wgt>
<wgt id='scales0.51.0'>  0.111240580E+07 </wgt>
<wgt id='scales1.00.5'>  0.924915565E+06 </wgt>
<wgt id='scales1.02.0'>  0.900694305E+06 </wgt>
<wgt id='scales2.01.0'>  0.766956218E+06 </wgt>
<wgt id='scales2.02.0'>  0.754669864E+06 </wgt>
</rwgt>
<scales uborns=' 0.206083103E+03'> </scales>
</event>
<event>
      4  10001  1.01200E+06  8.94427E-01  7.29735E-03  7.47175E-01
       1    -1     0     0   512     0  0.000000000E+00  0.000000000E+00  3.273657372E+03  3.273657372E+03  0.000000000E+00  0.00000E+00  9.000E+00
      21    -1     0     0   511   512  0.000000000E+00  0.000000000E+00 -6.171809313E+01  6.171809313E+01  0.000000000E+00  0.00000E+00  9.000E+00
       1     1     1     2   513     0  1.293696019E+02  1.559896614E+02  3.094544156E+03  3.101172811E+03  4.315837288E-05  0.00000E+00  9.000E+00
      21     1     1     2   511   513 -1.293696019E+02 -1.559896614E+02  1.173951225E+02  2.342026540E+02  6.180515955E-06  0.00000E+00  9.000E+00
#rwgt            1         181   7.8620961916947146E-003        6024     4275720           0
<rwgt>
<wgt id='central'>  0.101199971E+07 </wgt>
<wgt id='sudakovwgt'>  0.146433547E+01 </wgt>
<wgt id='scales0.50.5'>  0.137474284E+07 </wgt>
<wgt id='scales0.51.0'>  0.123044830E+07 </wgt>
<wgt id='scales1.00.5'>  0.113067713E+07 </wgt>
<wgt id='scales1.02.0'>  0.909260359E+06 </wgt>
<wgt id='scales2.01.0'>  0.847593912E+06 </wgt>
<wgt id='scales2.02.0'>  0.761545005E+06 </wgt>
</rwgt>
<scales uborns=' 0.202655541E+03'> </scales>
</event>
<event>
      5  10001  5.66914E+02  3.70778E+02  7.29735E-03  1.02687E-01
       2    -1     0     0   513     0  0.000000000E+00  0.000000000E+00  1.855160223E+03  1.855160223E+03  0.000000000E+00  0.00000E+00  9.000E+00
      21    -1     0     0   514   512  0.000000000E+00  0.000000000E+00 -2.766199256E+02  2.766199256E+02  0.000000000E+00  0.00000E+00  9.000E+00
      22     1     1     2     0     0 -1.742987677E+02 -6.041536732E+02  5.607054394E+02  8.424798579E+02  2.018548058E-05  0.00000E+00  9.000E+00
      21     1     1     2   513   512 -2.845874689E+01  5.765362625E+02  6.576580286E+02  8.750531669E+02  1.705984480E-05  0.00000E+00  9.000E+00
       2     1     1     2   514     0  2.027575146E+02  2.761741071E+01  3.601768290E+02  4.142471234E+02  0.000000000E+00  0.00000E+00  9.000E+00
#rwgt            1         182   7.8525476138356694E-003        6024     4276649           0
<rwgt>
<wgt id='central'>  0.566913957E+03 </wgt>
<wgt id='sudakovwgt'>  0.109045724E+00 </wgt>
<wgt id='scales0.50.5'>  0.732811544E+03 </wgt>
<wgt id='scales0.51.0'>  0.668458361E+03 </wgt>
<wgt id='scales1.00.5'>  0.621491401E+03 </wgt>
<wgt id='scales1.02.0'>  0.519503360E+03 </wgt>
<wgt id='scales2.01.0'>  0.487084203E+03 </wgt>
<wgt id='scales2.02.0'>  0.446349676E+03 </wgt>
</rwgt>
<scales uborns=' 0.716138078E+03'> </scales>
</event>
<event>
      5  10001  1.19309E+03  3.70445E+00  7.29735E-03  2.71580E-01
       1    -1     0     0   512     0  0.000000000E+00  0.000000000E+00  2.015460193E+03  2.015460193E+03  0.000000000E+00  0.00000E+00  9.000E+00
      21    -1     0     0   511   515  0.000000000E+00  0.000000000E+00 -2.048612163E+02  2.048612163E+02  0.000000000E+00  0.00000E+00  9.000E+00
       1     1     1     2   511     0 -1.595721915E+01  6.132235766E+02  1.096541875E+03  1.256464035E+03  3.051757812E-05  0.00000E+00  9.000E+00
      21     1     1     2   512   515  1.457318104E+01 -6.300340893E+02  6.900638500E+02  9.345284631E+02  1.525878906E-05  0.00000E+00  9.000E+00
      22     1     1     2     0     0  1.384038108E+00  1.681051272E+01  2.399325165E+01  2.932891106E+01  5.840038640E-07  0.00000E+00  9.000E+00
#rwgt            1         181   3.9138407265371855E-003        6024     4277347           0
<rwgt>
<wgt id='central'>  0.119308569E+04 </wgt>
<wgt id='sudakovwgt'>  0.264935110E-01 </wgt>
<wgt id='scales0.50.5'>  0.155894040E+04 </wgt>
<wgt id='scales0.51.0'>  0.141051780E+04 </wgt>
<wgt id='scales1.00.5'>  0.131863362E+04 </wgt>
<wgt id='scales1.02.0'>  0.108469432E+04 </wgt>
<wgt id='scales2.01.0'>  0.102280081E+04 </wgt>
<wgt id='scales2.02.0'>  0.929876390E+03 </wgt>
</rwgt>
<scales uborns=' 0.630396972E+03'> </scales>
</event>
<event>
      5  10001  9.09640E+02  1.34326E+02  7.29735E-03  1.18325E-01
      21    -1     0     0   513   514  0.000000000E+00  0.000000000E+00  3.978458700E+02  3.978458700E+02  0.000000000E+00  0.00000E+00  9.000E+00
      21    -1     0     0   514   512  0.000000000E+00  0.000000000E+00 -1.096089344E+03  1.096089344E+03  0.000000000E+00  0.00000E+00  9.000E+00
       2     1     1     2   513     0  7.535456509E+01  5.305517079E+02 -3.949849300E+02  6.657150443E+02  1.618438983E-05  0.00000E+00  9.000E+00
      -2     1     1     2     0   512 -6.919143867E+01 -6.304152053E+02 -3.424656931E+02  7.207590008E+02  9.344061824E-06  0.00000E+00  9.000E+00
      22     1     1     2     0     0 -6.163126415E+00  9.986349747E+01  3.920714925E+01  1.074611688E+02  1.846782373E-06  0.00000E+00  9.000E+00
#rwgt            1         202   7.2248511335277414E-005        6024     4277884           0
<rwgt>
<wgt id='central'>  0.909639806E+03 </wgt>
<wgt id='sudakovwgt'>  0.283608273E-01 </wgt>
<wgt id='scales0.50.5'>  0.123073380E+04 </wgt>
<wgt id='scales0.51.0'>  0.107436767E+04 </wgt>
<wgt id='scales1.00.5'>  0.104203126E+04 </wgt>
<wgt id='scales1.02.0'>  0.800991444E+03 </wgt>
<wgt id='scales2.01.0'>  0.780446654E+03 </wgt>
<wgt id='scales2.02.0'>  0.687229115E+03 </wgt>
</rwgt>
<scales uborns=' 0.660326601E+03'> </scales>
</event>
<event>
      5  10001  1.13554E+04  3.20086E+01  7.29735E-03  1.51110E-01
      -3    -1     0     0     0   511  0.000000000E+00  0.000000000E+00  1.377326692E+02  1.377326692E+02  0.000000000E+00  0.00000E+00  9.000E+00
       2    -1     0     0   511     0  0.000000000E+00  0.000000000E+00 -3.077222480E+03  3.077222480E+03  0.000000000E+00  0.00000E+00  9.000E+00
       2     1     1     2   514     0 -4.131780468E+02  1.402389765E+02 -1.951565969E+03  1.999748184E+03  3.737624730E-05  0.00000E+00  9.000E+00
      -3     1     1     2     0   514  4.106330209E+02 -1.083316655E+02 -2.847610790E+02  5.113160468E+02  2.320389759E-05  0.00000E+00  9.000E+00
      22     1     1     2     0     0  2.545025936E+00 -3.190731102E+01 -7.031627628E+02  7.038909182E+02  0.000000000E+00  0.00000E+00  9.000E+00
#rwgt            1         170   5.6776946886120906E-004        6024     4278030           0
<rwgt>
<wgt id='central'>  0.113553844E+05 </wgt>
<wgt id='sudakovwgt'>  0.347068721E-01 </wgt>
<wgt id='scales0.50.5'>  0.142747754E+05 </wgt>
<wgt id='scales0.51.0'>  0.135389803E+05 </wgt>
<wgt id='scales1.00.5'>  0.119725253E+05 </wgt>
<wgt id='scales1.02.0'>  0.107758766E+05 </wgt>
<wgt id='scales2.01.0'>  0.966572442E+04 </wgt>
<wgt id='scales2.02.0'>  0.917243373E+04 </wgt>
</rwgt>
<scales uborns=' 0.430225215E+03'> </scales>
</event>
<event>
      5  10001  2.68307E+04  2.90890E+01  7.29735E-03  1.53976E-01
      21    -1     0     0   512   511  0.000000000E+00  0.000000000E+00  2.484553901E+02  2.484553901E+02  0.000000000E+00  0.00000E+00  9.000E+00
       2    -1     0     0   513     0  0.000000000E+00  0.000000000E+00 -2.902820519E+03  2.902820519E+03  0.000000000E+00  0.00000E+00  9.000E+00
       2     1     1     2   512     0 -6.545894582E+01 -3.592308277E+02 -1.806727888E+03  1.843257259E+03  3.737624730E-05  0.00000E+00  9.000E+00
      21     1     1     2   513   511  4.274327484E+01  3.774014174E+02  7.313137132E+01  3.867906603E+02  1.446318711E-05  0.00000E+00  9.000E+00
      22     1     1     2     0     0  2.271567098E+01 -1.817058971E+01 -9.207686119E+02  9.212279895E+02  1.078959322E-05  0.00000E+00  9.000E+00
#rwgt            1         187   1.7584543315782110E-002        6024     4283493           0
<rwgt>
<wgt id='central'>  0.268307357E+05 </wgt>
<wgt id='sudakovwgt'>  0.290804882E-01 </wgt>
<wgt id='scales0.50.5'>  0.353289490E+05 </wgt>
<wgt id='scales0.51.0'>  0.321004520E+05 </wgt>
<wgt id='scales1.00.5'>  0.295291927E+05 </wgt>
<wgt id='scales1.02.0'>  0.244936416E+05 </wgt>
<wgt id='scales2.01.0'>  0.227728366E+05 </wgt>
<wgt id='scales2.02.0'>  0.207892339E+05 </wgt>
</rwgt>
<scales uborns=' 0.372247937E+03'> </scales>
</event>
<event>
      5  10001  1.37454E+05  1.21936E+01  7.29735E-03  1.86300E-01
       5    -1     0     0   515     0  0.000000000E+00  0.000000000E+00  5.862959652E+02  5.862959652E+02  0.000000000E+00  0.00000E+00  9.000E+00
      21    -1     0     0   514   512  0.000000000E+00  0.000000000E+00 -1.447591605E+02  1.447591605E+02  0.000000000E+00  0.00000E+00  9.000E+00
       5     1     1     2   514     0 -8.273158396E+01  2.342368754E+02  2.858727618E+02  3.787276920E+02  5.394796609E-06  0.00000E+00  9.000E+00
      21     1     1     2   515   512  9.347820133E+01 -2.661118657E+02  1.335585265E+02  3.120762394E+02  3.303624740E-06  0.00000E+00  9.000E+00
      22     1     1     2     0     0 -1.074661737E+01  3.187499030E+01  2.210551636E+01  4.025119433E+01  8.920806376E-07  0.00000E+00  9.000E+00
#rwgt            1         185   1.9528494793649950E-004        6024     4284098           0
<rwgt>
<wgt id='central'>  0.137454363E+06 </wgt>
<wgt id='sudakovwgt'>  0.212847177E-01 </wgt>
<wgt id='scales0.50.5'>  0.157220857E+06 </wgt>
<wgt id='scales0.51.0'>  0.165592475E+06 </wgt>
<wgt id='scales1.00.5'>  0.130504938E+06 </wgt>
<wgt id='scales1.02.0'>  0.141494887E+06 </wgt>
<wgt id='scales2.01.0'>  0.115998395E+06 </wgt>
<wgt id='scales2.02.0'>  0.119408528E+06 </wgt>
</rwgt>
<scales uborns=' 0.283002134E+03'> </scales>
</event>
<event>
      5  10001  8.25616E+02  1.31075E+02  7.29735E-03  1.18763E-01
       2    -1     0     0   511     0  0.000000000E+00  0.000000000E+00  6.612709893E+02  6.612709893E+02  0.000000000E+00  0.00000E+00  9.000E+00
      -3    -1     0     0     0   511  0.000000000E+00  0.000000000E+00 -1.008245755E+03  1.008245755E+03  0.000000000E+00  0.00000E+00  9.000E+00
      22     1     1     2     0     0  2.451233081E+01 -2.351885056E+02  7.680330868E+01  2.486226775E+02  4.768371582E-06  0.00000E+00  9.000E+00
      -3     1     1     2     0   513  3.056509625E+01  6.685493227E+02 -6.465295444E+02  9.305336500E+02  7.629394531E-06  0.00000E+00  9.000E+00
       2     1     1     2   513     0 -5.507742706E+01 -4.333608171E+02  2.227514702E+02  4.903604167E+02  5.394796609E-06  0.00000E+00  9.000E+00
#rwgt            1         146   9.9513877275087949E-005        6024     4284276           0
<rwgt>
<wgt id='central'>  0.825615539E+03 </wgt>
<wgt id='sudakovwgt'>  0.207206090E-02 </wgt>
<wgt id='scales0.50.5'>  0.102641284E+04 </wgt>
<wgt id='scales0.51.0'>  0.974791363E+03 </wgt>
<wgt id='scales1.00.5'>  0.869337679E+03 </wgt>
<wgt id='scales1.02.0'>  0.784886584E+03 </wgt>
<wgt id='scales2.01.0'>  0.708562526E+03 </wgt>
<wgt id='scales2.02.0'>  0.673607610E+03 </wgt>
</rwgt>
<scales uborns=' 0.671380075E+03'> </scales>
</event>
<event>
      5  10001  6.33238E+03  1.23829E+01  7.29735E-03  1.85605E-01
       3    -1     0     0   513     0  0.000000000E+00  0.000000000E+00  1.120880925E+03  1.120880925E+03  0.000000000E+00  0.00000E+00  9.000E+00
      21    -1     0     0   512   511  0.000000000E+00  0.000000000E+00 -3.797812688E+02  3.797812688E+02  0.000000000E+00  0.00000E+00  9.000E+00
       3     1     1     2   512     0 -4.384738689E+01  4.675673691E+02  8.371261609E+02  9.598552220E+02  1.078959322E-05  0.00000E+00  9.000E+00
      21     1     1     2   513   511  3.807091246E+01 -4.785203339E+02 -1.360272794E+02  4.989333874E+02  6.607249480E-06  0.00000E+00  9.000E+00
      22     1     1     2     0     0  5.776474423E+00  1.095296489E+01  4.000077479E+01  4.187358452E+01  4.768371582E-07  0.00000E+00  9.000E+00
#rwgt            1         183   4.6298808683891855E-004        6024     4285488           0
<rwgt>
<wgt id='central'>  0.633237511E+04 </wgt>
<wgt id='sudakovwgt'>  0.275366003E-01 </wgt>
<wgt id='scales0.50.5'>  0.824405383E+04 </wgt>
<wgt id='scales0.51.0'>  0.753295281E+04 </wgt>
<wgt id='scales1.00.5'>  0.693014850E+04 </wgt>
<wgt id='scales1.02.0'>  0.581000157E+04 </wgt>
<wgt id='scales2.01.0'>  0.540036119E+04 </wgt>
<wgt id='scales2.02.0'>  0.495486799E+04 </wgt>
</rwgt>
<scales uborns=' 0.474798060E+03'> </scales>
</event>
<event>
      5  10001  2.17809E+03  3.71772E+01  7.29735E-03  1.46839E-01
      -3    -1     0     0     0   514  0.000000000E+00  0.000000000E+00  3.608326754E+02  3.608326754E+02  0.000000000E+00  0.00000E+00  9.000E+00
       2    -1     0     0   514     0  0.000000000E+00  0.000000000E+00 -9.636378211E+02  9.636378211E+02  0.000000000E+00  0.00000E+00  9.000E+00
       2     1     1     2   513     0 -3.890473491E+02 -1.895356542E+02 -3.753543260E+02  5.728633991E+02  9.344061824E-06  0.00000E+00  9.000E+00
      -3     1     1     2     0   513  4.938552361E+02  2.788047730E+02 -1.269519246E+02  5.811556477E+02  1.348699152E-06  0.00000E+00  9.000E+00
      22     1     1     2     0     0 -1.048078870E+02 -8.926911884E+01 -1.004988951E+02  1.704514496E+02  5.046370146E-06  0.00000E+00  9.000E+00
#rwgt            1         170   1.9696142542465181E-004        6024     4286016           0
<rwgt>
<wgt id='central'>  0.217809118E+04 </wgt>
<wgt id='sudakovwgt'>  0.898707706E-03 </wgt>
<wgt id='scales0.50.5'>  0.265997956E+04 </wgt>
<wgt id='scales0.51.0'>  0.258067028E+04 </wgt>
<wgt id='scales1.00.5'>  0.224502717E+04 </wgt>
<wgt id='scales1.02.0'>  0.211081749E+04 </wgt>
<wgt id='scales2.01.0'>  0.186377235E+04 </wgt>
<wgt id='scales2.02.0'>  0.180620785E+04 </wgt>
</rwgt>
<scales uborns=' 0.568942608E+03'> </scales>
</event>
<event>
      5  10001  7.32947E+02  4.55772E+01  7.29735E-03  1.41410E-01
       4    -1     0     0   511     0  0.000000000E+00  0.000000000E+00  7.374103219E+02  7.374103219E+02  0.000000000E+00  0.00000E+00  9.000E+00
      -4    -1     0     0     0   511  0.000000000E+00  0.000000000E+00 -8.678893561E+02  8.678893561E+02  0.000000000E+00  0.00000E+00  9.000E+00
       4     1     1     2   512     0 -6.715944535E+02 -2.107660010E+02  2.878553987E+02  7.604749487E+02  3.814697266E-06  0.00000E+00  9.000E+00
      -4     1     1     2     0   512  6.439898270E+02  1.744994604E+02 -4.347804628E+02  7.963711508E+02  5.394796609E-06  0.00000E+00  9.000E+00
      22     1     1     2     0     0  2.760462643E+01  3.626654061E+01  1.644602992E+01  4.845357849E+01  1.168007728E-06  0.00000E+00  9.000E+00
#rwgt            1          59   2.7029937145806403E-006        6024     4291011           0
<rwgt>
<wgt id='central'>  0.732946562E+03 </wgt>
<wgt id='sudakovwgt'>  0.443911203E-01 </wgt>
<wgt id='scales0.50.5'>  0.846700952E+03 </wgt>
<wgt id='scales0.51.0'>  0.865013334E+03 </wgt>
<wgt id='scales1.00.5'>  0.717430470E+03 </wgt>
<wgt id='scales1.02.0'>  0.739525211E+03 </wgt>
<wgt id='scales2.01.0'>  0.629256071E+03 </wgt>
<wgt id='scales2.02.0'>  0.634903655E+03 </wgt>
</rwgt>
<scales uborns=' 0.685226005E+03'> </scales>
</event>
<event>
      5  10001  3.38695E+02  1.20652E+03  7.29735E-03  8.90758E-02
       2    -1     0     0   513     0  0.000000000E+00  0.000000000E+00  2.217899500E+03  2.217899500E+03  0.000000000E+00  0.00000E+00  9.000E+00
       2    -1     0     0   512     0  0.000000000E+00  0.000000000E+00 -2.871935209E+02  2.871935209E+02  0.000000000E+00  0.00000E+00  9.000E+00
       2     1     1     2   513     0 -2.097351678E+01 -4.662344686E+02  4.295539942E+02  6.342957529E+02  1.618438983E-05  0.00000E+00  9.000E+00
       2     1     1     2   512     0  1.209841063E+01  1.012808186E+02 -1.490985174E+02  1.806503353E+02  5.722045898E-06  0.00000E+00  9.000E+00
      22     1     1     2     0     0  8.875106151E+00  3.649536501E+02  1.650250503E+03  1.690146933E+03  2.157918644E-05  0.00000E+00  9.000E+00
#rwgt            1          97   7.7449913118950143E-004        6024     4291283           0
<rwgt>
<wgt id='central'>  0.338695093E+03 </wgt>
<wgt id='sudakovwgt'>  0.556459428E-03 </wgt>
<wgt id='scales0.50.5'>  0.425946168E+03 </wgt>
<wgt id='scales0.51.0'>  0.398646177E+03 </wgt>
<wgt id='scales1.00.5'>  0.361889429E+03 </wgt>
<wgt id='scales1.02.0'>  0.318091529E+03 </wgt>
<wgt id='scales2.01.0'>  0.291443307E+03 </wgt>
<wgt id='scales2.02.0'>  0.273714248E+03 </wgt>
</rwgt>
<scales uborns=' 0.782689014E+03'> </scales>
</event>
<event>
      5  10001  1.89042E+03  1.89122E+01  7.29735E-03  1.68398E-01
      21    -1     0     0   511   514  0.000000000E+00  0.000000000E+00  1.675970570E+02  1.675970570E+02  0.000000000E+00  0.00000E+00  9.000E+00
       2    -1     0     0   513     0  0.000000000E+00  0.000000000E+00 -3.309793450E+03  3.309793450E+03  0.000000000E+00  0.00000E+00  9.000E+00
       2     1     1     2   511     0  2.278934345E+02 -2.315919613E+02 -1.528333878E+03  1.562489903E+03  0.000000000E+00  0.00000E+00  9.000E+00
      21     1     1     2   513   514 -4.054378948E+02  4.185144463E+02 -4.884581795E+02  7.603457250E+02  1.206313194E-05  0.00000E+00  9.000E+00
      22     1     1     2     0     0  1.775444603E+02 -1.869224850E+02 -1.125404335E+03  1.154554879E+03  2.157918644E-05  0.00000E+00  9.000E+00
#rwgt            1         187   6.7670095857769647E-002        6024     4291512           0
<rwgt>
<wgt id='central'>  0.189041553E+04 </wgt>
<wgt id='sudakovwgt'>  0.817705687E-03 </wgt>
<wgt id='scales0.50.5'>  0.251226270E+04 </wgt>
<wgt id='scales0.51.0'>  0.223866549E+04 </wgt>
<wgt id='scales1.00.5'>  0.212145659E+04 </wgt>
<wgt id='scales1.02.0'>  0.169466158E+04 </wgt>
<wgt id='scales2.01.0'>  0.161832316E+04 </wgt>
<wgt id='scales2.02.0'>  0.145074115E+04 </wgt>
</rwgt>
<scales uborns=' 0.582819535E+03'> </scales>
</event>
<event>
      5  10001  5.14851E+03  4.03150E+00  7.29735E-03  2.62669E-01
       2    -1     0     0   515     0  0.000000000E+00  0.000000000E+00  3.703459646E+03  3.703459646E+03  0.000000000E+00  0.00000E+00  9.000E+00
      21    -1     0     0   511   515  0.000000000E+00  0.000000000E+00 -2.590605630E+02  2.590605630E+02  0.000000000E+00  0.00000E+00  9.000E+00
       2     1     1     2   512     0  1.468953427E+02 -4.686046913E+02  2.956016651E+03  2.996531836E+03  0.000000000E+00  0.00000E+00  9.000E+00
      21     1     1     2   511   512 -1.509267450E+02  4.686329573E+02  1.497595081E+01  4.925647269E+02  7.721965189E-06  0.00000E+00  9.000E+00
      22     1     1     2     0     0  4.031402316E+00 -2.826604298E-02  4.734064806E+02  4.734236463E+02  7.629394531E-06  0.00000E+00  9.000E+00
#rwgt            1         182   1.5049101549525986E-002        6024     4292632           0
<rwgt>
<wgt id='central'>  0.514851249E+04 </wgt>
<wgt id='sudakovwgt'>  0.561803723E-01 </wgt>
<wgt id='scales0.50.5'>  0.697241788E+04 </wgt>
<wgt id='scales0.51.0'>  0.611978706E+04 </wgt>
<wgt id='scales1.00.5'>  0.586581899E+04 </wgt>
<wgt id='scales1.02.0'>  0.455444282E+04 </wgt>
<wgt id='scales2.01.0'>  0.439364668E+04 </wgt>
<wgt id='scales2.02.0'>  0.388668033E+04 </wgt>
</rwgt>
<scales uborns=' 0.491709253E+03'> </scales>
</event>
<event>
      5  10001  7.62841E+03  1.97618E+01  7.29735E-03  1.66799E-01
       2    -1     0     0   512     0  0.000000000E+00  0.000000000E+00  4.246403224E+03  4.246403224E+03  0.000000000E+00  0.00000E+00  9.000E+00
      21    -1     0     0   513   514  0.000000000E+00  0.000000000E+00 -2.321242989E+02  2.321242989E+02  0.000000000E+00  0.00000E+00  9.000E+00
       2     1     1     2   513     0 -1.611345912E+02  4.135706950E+02  3.692927624E+03  3.719505278E+03  6.103515625E-05  0.00000E+00  9.000E+00
      21     1     1     2   512   514  1.646474336E+02 -4.289884670E+02  2.281311056E+01  4.600655608E+02  2.158972058E-06  0.00000E+00  9.000E+00
      22     1     1     2     0     0 -3.512842431E+00  1.541777204E+01  2.985381913E+02  2.989566849E+02  3.814697266E-06  0.00000E+00  9.000E+00
#rwgt            1         182   2.1094276632939526E-002        6024     4300178           0
<rwgt>
<wgt id='central'>  0.762841241E+04 </wgt>
<wgt id='sudakovwgt'>  0.654103573E-01 </wgt>
<wgt id='scales0.50.5'>  0.106427628E+05 </wgt>
<wgt id='scales0.51.0'>  0.908121282E+04 </wgt>
<wgt id='scales1.00.5'>  0.894014483E+04 </wgt>
<wgt id='scales1.02.0'>  0.657597132E+04 </wgt>
<wgt id='scales2.01.0'>  0.650173300E+04 </wgt>
<wgt id='scales2.02.0'>  0.560473411E+04 </wgt>
</rwgt>
<scales uborns=' 0.460094421E+03'> </scales>
</event>
<event>
      4  10001  7.86378E+04  8.94427E-01  7.29735E-03  7.40937E-01
       1    -1     0     0   513     0  0.000000000E+00  0.000000000E+00  1.341036813E+03  1.341036813E+03  0.000000000E+00  0.00000E+00  9.000E+00
      21    -1     0     0   511   515  0.000000000E+00  0.000000000E+00 -7.285432801E+01  7.285432801E+01  0.000000000E+00  0.00000E+00  9.000E+00
       1     1     1     2   511     0 -1.222284109E+02 -2.857196191E+02  7.099464484E+02  7.749835126E+02  0.000000000E+00  0.00000E+00  9.000E+00
      21     1     1     2   513   515  1.222284109E+02  2.857196191E+02  5.582360370E+02  6.389076288E+02  0.000000000E+00  0.00000E+00  9.000E+00
#rwgt            1         181   4.2217341730008719E-003        6024     4304223           0
<rwgt>
<wgt id='central'>  0.786377574E+05 </wgt>
<wgt id='sudakovwgt'>  0.149564333E+01 </wgt>
<wgt id='scales0.50.5'>  0.985246427E+05 </wgt>
<wgt id='scales0.51.0'>  0.945066613E+05 </wgt>
<wgt id='scales1.00.5'>  0.819811116E+05 </wgt>
<wgt id='scales1.02.0'>  0.752722381E+05 </wgt>
<wgt id='scales2.01.0'>  0.664960941E+05 </wgt>
<wgt id='scales2.02.0'>  0.636501762E+05 </wgt>
</rwgt>
<scales uborns=' 0.310765965E+03'> </scales>
</event>
<event>
      5  10001  8.12357E+05  1.81666E+01  7.29735E-03  1.69889E-01
      21    -1     0     0   512   514  0.000000000E+00  0.000000000E+00  9.710619455E+01  9.710619455E+01  0.000000000E+00  0.00000E+00  9.000E+00
      21    -1     0     0   514   513  0.000000000E+00  0.000000000E+00 -1.147631075E+03  1.147631075E+03  0.000000000E+00  0.00000E+00  9.000E+00
       1     1     1     2   512     0  4.579051992E+01 -2.051742075E+02 -4.181505301E+01  2.143402104E+02  2.286830675E-06  0.00000E+00  9.000E+00
      22     1     1     2     0     0 -2.850509976E+00  1.774210451E+01 -8.115344851E+01  8.311913068E+01  0.000000000E+00  0.00000E+00  9.000E+00
      -1     1     1     2     0   513 -4.294000994E+01  1.874321030E+02 -9.275563792E+02  9.472779288E+02  1.078959322E-05  0.00000E+00  9.000E+00
#rwgt            1         201   4.2044364229565100E-005        6024     4305026           0
<rwgt>
<wgt id='central'>  0.812356591E+06 </wgt>
<wgt id='sudakovwgt'>  0.308860984E-01 </wgt>
<wgt id='scales0.50.5'>  0.108473620E+07 </wgt>
<wgt id='scales0.51.0'>  0.986665829E+06 </wgt>
<wgt id='scales1.00.5'>  0.893101818E+06 </wgt>
<wgt id='scales1.02.0'>  0.740781311E+06 </wgt>
<wgt id='scales2.01.0'>  0.680973805E+06 </wgt>
<wgt id='scales2.02.0'>  0.620974114E+06 </wgt>
</rwgt>
<scales uborns=' 0.210235697E+03'> </scales>
</event>
<event>
      5  10001  1.39639E+04  3.08294E+02  7.29735E-03  1.05208E-01
      -2    -1     0     0     0   511  0.000000000E+00  0.000000000E+00  1.221580633E+03  1.221580633E+03  0.000000000E+00  0.00000E+00  9.000E+00
      21    -1     0     0   511   512  0.000000000E+00  0.000000000E+00 -1.750408897E+02  1.750408897E+02  0.000000000E+00  0.00000E+00  9.000E+00
      22     1     1     2     0     0 -1.295160582E+01  1.707188921E+01  2.319799517E+01  3.158069782E+01  5.840038640E-07  0.00000E+00  9.000E+00
      21     1     1     2   513   512  6.530009654E+01 -4.080664380E+02  2.156012648E+02  4.661182530E+02  1.293626782E-05  0.00000E+00  9.000E+00
      -2     1     1     2     0   513 -5.234849071E+01  3.909945488E+02  8.077404837E+02  8.989225721E+02  1.078959322E-05  0.00000E+00  9.000E+00
#rwgt            1         192   5.8142411544693541E-004        6024     4305629           0
<rwgt>
<wgt id='central'>  0.139639133E+05 </wgt>
<wgt id='sudakovwgt'>  0.350160575E-01 </wgt>
<wgt id='scales0.50.5'>  0.179516907E+05 </wgt>
<wgt id='scales0.51.0'>  0.166626820E+05 </wgt>
<wgt id='scales1.00.5'>  0.150441335E+05 </wgt>
<wgt id='scales1.02.0'>  0.129855512E+05 </wgt>
<wgt id='scales2.01.0'>  0.118779809E+05 </wgt>
<wgt id='scales2.02.0'>  0.110457773E+05 </wgt>
</rwgt>
<scales uborns=' 0.415490460E+03'> </scales>
</event>
<event>
      5  10001  6.14543E+02  8.27850E+01  7.29735E-03  1.27634E-01
       2    -1     0     0   512     0  0.000000000E+00  0.000000000E+00  6.234986370E+02  6.234986370E+02  0.000000000E+00  0.00000E+00  9.000E+00
      21    -1     0     0   514   515  0.000000000E+00  0.000000000E+00 -1.803261561E+03  1.803261561E+03  0.000000000E+00  0.00000E+00  9.000E+00
       2     1     1     2   514     0  5.676985808E+02  4.183257447E+02 -1.411845578E+03  1.578159068E+03  2.157918644E-05  0.00000E+00  9.000E+00
      21     1     1     2   512   515 -5.183995737E+02 -4.848310790E+02  1.376381524E+02  7.230100650E+02  2.027539408E-05  0.00000E+00  9.000E+00
      22     1     1     2     0     0 -4.929900715E+01  6.650533429E+01  9.444450193E+01  1.255910647E+02  1.907348633E-06  0.00000E+00  9.000E+00
#rwgt            1         182   1.1708986549803141E-004        6024     4305956           0
<rwgt>
<wgt id='central'>  0.614542857E+03 </wgt>
<wgt id='sudakovwgt'>  0.271734156E-01 </wgt>
<wgt id='scales0.50.5'>  0.822167924E+03 </wgt>
<wgt id='scales0.51.0'>  0.724823946E+03 </wgt>
<wgt id='scales1.00.5'>  0.697076229E+03 </wgt>
<wgt id='scales1.02.0'>  0.546584548E+03 </wgt>
<wgt id='scales2.01.0'>  0.527879915E+03 </wgt>
<wgt id='scales2.02.0'>  0.469504989E+03 </wgt>
</rwgt>
<scales uborns=' 0.706273649E+03'> </scales>
</event>
<event>
      5  10001  1.58925E+01  1.95621E+02  7.29735E-03  1.11999E-01
       2    -1     0     0   513     0  0.000000000E+00  0.000000000E+00  2.693337469E+03  2.693337469E+03  0.000000000E+00  0.00000E+00  9.000E+00
       1    -1     0     0   511     0  0.000000000E+00  0.000000000E+00 -7.471046088E+02  7.471046088E+02  0.000000000E+00  0.00000E+00  9.000E+00
      22     1     1     2     0     0 -3.458634753E+01  2.107480494E+01  5.432141909E+01  6.775824239E+01  1.168007728E-06  0.00000E+00  9.000E+00
       1     1     1     2   513     0  1.176468653E+03 -6.614019889E+02  4.443005520E+02  1.420891995E+03  3.578503235E-05  0.00000E+00  9.000E+00
       2     1     1     2   511     0 -1.141882305E+03  6.403271839E+02  1.447610890E+03  1.951791841E+03  0.000000000E+00  0.00000E+00  9.000E+00
#rwgt            1          92   1.9550656583422824E-003        6024     4307227           0
<rwgt>
<wgt id='central'>  0.158925303E+02 </wgt>
<wgt id='sudakovwgt'>  0.863998074E-03 </wgt>
<wgt id='scales0.50.5'>  0.204993972E+02 </wgt>
<wgt id='scales0.51.0'>  0.185162118E+02 </wgt>
<wgt id='scales1.00.5'>  0.175946718E+02 </wgt>
<wgt id='scales1.02.0'>  0.144469215E+02 </wgt>
<wgt id='scales2.01.0'>  0.137942892E+02 </wgt>
<wgt id='scales2.02.0'>  0.125395635E+02 </wgt>
</rwgt>
<scales uborns=' 0.134985086E+04'> </scales>
</event>
<event>
      5  10001  3.60872E+04  1.93003E+02  7.29735E-03  1.12214E-01
       1    -1     0     0   511     0  0.000000000E+00  0.000000000E+00  2.175818190E+03  2.175818190E+03  0.000000000E+00  0.00000E+00  9.000E+00
      21    -1     0     0   512   514  0.000000000E+00  0.000000000E+00 -1.461584953E+02  1.461584953E+02  0.000000000E+00  0.00000E+00  9.000E+00
      22     1     1     2     0     0 -5.943167304E+00  1.718179084E+02  1.703741134E+03  1.712393228E+03  2.157918644E-05  0.00000E+00  9.000E+00
      21     1     1     2   511   514  2.701240612E+01 -3.220636522E+02  1.016218990E+02  3.387944458E+02  8.092194914E-06  0.00000E+00  9.000E+00
       1     1     1     2   512     0 -2.106923881E+01  1.502457438E+02  2.242966614E+02  2.707890113E+02  0.000000000E+00  0.00000E+00  9.000E+00
#rwgt            1         181   4.7715069879583549E-003        6024     4311139           0
<rwgt>
<wgt id='central'>  0.360872069E+05 </wgt>
<wgt id='sudakovwgt'>  0.233535308E-01 </wgt>
<wgt id='scales0.50.5'>  0.476471443E+05 </wgt>
<wgt id='scales0.51.0'>  0.432275863E+05 </wgt>
<wgt id='scales1.00.5'>  0.397767299E+05 </wgt>
<wgt id='scales1.02.0'>  0.328687955E+05 </wgt>
<wgt id='scales2.01.0'>  0.305983981E+05 </wgt>
<wgt id='scales2.02.0'>  0.278695074E+05 </wgt>
</rwgt>
<scales uborns=' 0.354162038E+03'> </scales>
</event>
<event>
      5  10001  3.04919E+01  5.16667E+00  7.29735E-03  2.36054E-01
      -1    -1     0     0     0   513  0.000000000E+00  0.000000000E+00  1.256921590E+03  1.256921590E+03  0.000000000E+00  0.00000E+00  9.000E+00
      21    -1     0     0   515   511  0.000000000E+00  0.000000000E+00 -1.532544223E+03  1.532544223E+03  0.000000000E+00  0.00000E+00  9.000E+00
      -1     1     1     2     0   511 -1.068902714E+03  9.283656314E+01 -7.601698385E+02  1.314925786E+03  3.578503235E-05  0.00000E+00  9.000E+00
      21     1     1     2   515   513  1.193304533E+03 -1.020068967E+02  5.669186765E+02  1.325057697E+03  3.496227795E-05  0.00000E+00  9.000E+00
      22     1     1     2     0     0 -1.244018186E+02  9.170333521E+00 -8.237147082E+01  1.494823290E+02  9.536743164E-07  0.00000E+00  9.000E+00
#rwgt            1         191   4.8682690211929825E-005        6024     4311232           0
<rwgt>
<wgt id='central'>  0.304919080E+02 </wgt>
<wgt id='sudakovwgt'>  0.676423560E-03 </wgt>
<wgt id='scales0.50.5'>  0.417559400E+02 </wgt>
<wgt id='scales0.51.0'>  0.356012349E+02 </wgt>
<wgt id='scales1.00.5'>  0.357633085E+02 </wgt>
<wgt id='scales1.02.0'>  0.262904955E+02 </wgt>
<wgt id='scales2.01.0'>  0.264182781E+02 </wgt>
<wgt id='scales2.02.0'>  0.227781680E+02 </wgt>
</rwgt>
<scales uborns=' 0.119769291E+04'> </scales>
</event>
<event>
      5  10001  2.78385E+02  1.50034E+02  7.29735E-03  1.16390E-01
       2    -1     0     0   511     0  0.000000000E+00  0.000000000E+00  2.655175564E+03  2.655175564E+03  0.000000000E+00  0.00000E+00  9.000E+00
      21    -1     0     0   514   511  0.000000000E+00  0.000000000E+00 -3.425195396E+02  3.425195396E+02  0.000000000E+00  0.00000E+00  9.000E+00
       2     1     1     2   512     0 -4.472528278E+02 -5.900828929E+02  7.817362703E+02  1.076728614E+03  0.000000000E+00  0.00000E+00  9.000E+00
      21     1     1     2   514   512  5.029164523E+02  7.294094331E+02  8.645144089E+02  1.237880544E+03  1.525878906E-05  0.00000E+00  9.000E+00
      22     1     1     2     0     0 -5.566362449E+01 -1.393265403E+02  6.664053447E+02  6.830859444E+02  7.629394531E-06  0.00000E+00  9.000E+00
#rwgt            1         182   8.1436396929749875E-003        6024     4311836           0
<rwgt>
<wgt id='central'>  0.278385318E+03 </wgt>
<wgt id='sudakovwgt'>  0.252353033E-01 </wgt>
<wgt id='scales0.50.5'>  0.362132059E+03 </wgt>
<wgt id='scales0.51.0'>  0.327439904E+03 </wgt>
<wgt id='scales1.00.5'>  0.307879803E+03 </wgt>
<wgt id='scales1.02.0'>  0.253113828E+03 </wgt>
<wgt id='scales2.01.0'>  0.239684169E+03 </wgt>
<wgt id='scales2.02.0'>  0.217926173E+03 </wgt>
</rwgt>
<scales uborns=' 0.809739506E+03'> </scales>
</event>
<event>
      5  10001  1.14507E+03  4.63012E+01  7.29735E-03  1.41007E-01
       2    -1     0     0   512     0  0.000000000E+00  0.000000000E+00  4.434874148E+03  4.434874148E+03  0.000000000E+00  0.00000E+00  9.000E+00
      21    -1     0     0   513   511  0.000000000E+00  0.000000000E+00 -9.179938627E+01  9.179938627E+01  0.000000000E+00  0.00000E+00  9.000E+00
      22     1     1     2     0     0 -3.098872971E+02 -2.520045340E+02  1.308577731E+03  1.368178387E+03  2.642899792E-05  0.00000E+00  9.000E+00
      21     1     1     2   512   511  5.047203708E+02  3.827637067E+02  2.393439178E+03  2.475843656E+03  4.315837288E-05  0.00000E+00  9.000E+00
       2     1     1     2   513     0 -1.948330737E+02 -1.307591727E+02  6.410578524E+02  6.826514908E+02  7.629394531E-06  0.00000E+00  9.000E+00
#rwgt            1         182   6.3011424873692483E-003        6024     4312511           0
<rwgt>
<wgt id='central'>  0.114506648E+04 </wgt>
<wgt id='sudakovwgt'>  0.836643671E-03 </wgt>
<wgt id='scales0.50.5'>  0.153759516E+04 </wgt>
<wgt id='scales0.51.0'>  0.135354666E+04 </wgt>
<wgt id='scales1.00.5'>  0.130077088E+04 </wgt>
<wgt id='scales1.02.0'>  0.101467664E+04 </wgt>
<wgt id='scales2.01.0'>  0.981756934E+03 </wgt>
<wgt id='scales2.02.0'>  0.869960634E+03 </wgt>
</rwgt>
<scales uborns=' 0.634836636E+03'> </scales>
</event>
<event>
      5  10001  2.39718E+05  6.50816E+00  7.29735E-03  2.20124E-01
      -5    -1     0     0     0   514  0.000000000E+00  0.000000000E+00  1.198489379E+02  1.198489379E+02  0.000000000E+00  0.00000E+00  9.000E+00
      21    -1     0     0   515   511  0.000000000E+00  0.000000000E+00 -1.056251137E+03  1.056251137E+03  0.000000000E+00  0.00000E+00  9.000E+00
      22     1     1     2     0     0 -1.937677716E+00  3.450187458E+00 -8.660849965E-01  4.050739642E+00  1.448558427E-07  0.00000E+00  9.000E+00
      21     1     1     2   515   514  1.275881547E+02 -2.240581846E+02 -8.734149165E+02  9.106780022E+02  1.525878906E-05  0.00000E+00  9.000E+00
      -5     1     1     2     0   511 -1.256504770E+02  2.206079971E+02 -6.212119809E+01  2.613713336E+02  7.356285391E-06  0.00000E+00  9.000E+00
#rwgt            1         195   1.8724391808700306E-004        6024     4314373           0
<rwgt>
<wgt id='central'>  0.239718376E+06 </wgt>
<wgt id='sudakovwgt'>  0.230187962E-01 </wgt>
<wgt id='scales0.50.5'>  0.286763087E+06 </wgt>
<wgt id='scales0.51.0'>  0.289507309E+06 </wgt>
<wgt id='scales1.00.5'>  0.237445728E+06 </wgt>
<wgt id='scales1.02.0'>  0.237780822E+06 </wgt>
<wgt id='scales2.01.0'>  0.201886809E+06 </wgt>
<wgt id='scales2.02.0'>  0.200255348E+06 </wgt>
</rwgt>
<scales uborns=' 0.257839066E+03'> </scales>
</event>
<event>
      4  10001  6.32342E+06  8.94427E-01  7.29735E-03  7.40808E-01
      -3    -1     0     0     0   512  0.000000000E+00  0.000000000E+00  5.464647146E+01  5.464647146E+01  0.000000000E+00  0.00000E+00  9.000E+00
       1    -1     0     0   512     0  0.000000000E+00  0.000000000E+00 -5.482569235E+02  5.482569235E+02  0.000000000E+00  0.00000E+00  9.000E+00
       1     1     1     2   511     0 -7.446150409E+01 -1.293330563E+02 -3.995169977E+02  4.264802299E+02  5.394796609E-06  0.00000E+00  9.000E+00
      -3     1     1     2     0   511  7.446150409E+01  1.293330563E+02 -9.409345439E+01  1.764231651E+02  1.907348633E-06  0.00000E+00  9.000E+00
#rwgt            1         169   1.1042490429464504E-004        6024     4314902           0
<rwgt>
<wgt id='central'>  0.632341937E+07 </wgt>
<wgt id='sudakovwgt'>  0.649916938E+01 </wgt>
<wgt id='scales0.50.5'>  0.746530368E+07 </wgt>
<wgt id='scales0.51.0'>  0.776026389E+07 </wgt>
<wgt id='scales1.00.5'>  0.608307285E+07 </wgt>
<wgt id='scales1.02.0'>  0.650193086E+07 </wgt>
<wgt id='scales2.01.0'>  0.525618554E+07 </wgt>
<wgt id='scales2.02.0'>  0.540456825E+07 </wgt>
</rwgt>
<scales uborns=' 0.149236574E+03'> </scales>
</event>
<event>
      4  10001  2.51013E+07  8.94427E-01  7.29735E-03  7.52513E-01
      21    -1     0     0   511   512  0.000000000E+00  0.000000000E+00  6.483429098E+01  6.483429098E+01  0.000000000E+00  0.00000E+00  9.000E+00
       2    -1     0     0   512     0  0.000000000E+00  0.000000000E+00 -1.618796854E+03  1.618796854E+03  0.000000000E+00  0.00000E+00  9.000E+00
       2     1     1     2   513     0 -2.559871828E+01 -1.157732540E+02 -1.560389150E+03  1.564887548E+03  3.051757812E-05  0.00000E+00  9.000E+00
      21     1     1     2   511   513  2.559871828E+01  1.157732540E+02  6.426586644E+00  1.187435966E+02  5.794846822E-06  0.00000E+00  9.000E+00
#rwgt            1         187   2.1021862605198158E-002        6024     4317945           0
<rwgt>
<wgt id='central'>  0.251013068E+08 </wgt>
<wgt id='sudakovwgt'>  0.775268086E+01 </wgt>
<wgt id='scales0.50.5'>  0.319189926E+08 </wgt>
<wgt id='scales0.51.0'>  0.310407423E+08 </wgt>
<wgt id='scales1.00.5'>  0.258115029E+08 </wgt>
<wgt id='scales1.02.0'>  0.242684044E+08 </wgt>
<wgt id='scales2.01.0'>  0.207369599E+08 </wgt>
<wgt id='scales2.02.0'>  0.200488791E+08 </wgt>
</rwgt>
<scales uborns=' 0.118569561E+03'> </scales>
</event>
<event>
      5  10001  1.78198E+02  8.88934E+02  7.29735E-03  9.22355E-02
       2    -1     0     0   513     0  0.000000000E+00  0.000000000E+00  2.105737779E+03  2.105737779E+03  0.000000000E+00  0.00000E+00  9.000E+00
       3    -1     0     0   514     0  0.000000000E+00  0.000000000E+00 -3.657979018E+02  3.657979018E+02  0.000000000E+00  0.00000E+00  9.000E+00
       2     1     1     2   514     0  7.632490155E+02 -2.876604257E+02  8.983118490E+02  1.213367940E+03  2.642899792E-05  0.00000E+00  9.000E+00
      22     1     1     2     0     0 -1.423881253E+02 -7.825899005E+01  3.497207801E+02  3.856208913E+02  5.394796609E-06  0.00000E+00  9.000E+00
       3     1     1     2   513     0 -6.208608901E+02  3.659194158E+02  4.919072483E+02  8.725468496E+02  9.344061824E-06  0.00000E+00  9.000E+00
#rwgt            1         102   2.4511847501908093E-004        6024     4322779           0
<rwgt>
<wgt id='central'>  0.178198149E+03 </wgt>
<wgt id='sudakovwgt'>  0.605592856E-04 </wgt>
<wgt id='scales0.50.5'>  0.222978244E+03 </wgt>
<wgt id='scales0.51.0'>  0.209280206E+03 </wgt>
<wgt id='scales1.00.5'>  0.189861612E+03 </wgt>
<wgt id='scales1.02.0'>  0.167577524E+03 </wgt>
<wgt id='scales2.01.0'>  0.153623062E+03 </wgt>
<wgt id='scales2.02.0'>  0.144467235E+03 </wgt>
</rwgt>
<scales uborns=' 0.875119318E+03'> </scales>
</event>
<event>
      5  10001  6.12918E+02  1.87441E+02  7.29735E-03  1.12683E-01
      21    -1     0     0   511   512  0.000000000E+00  0.000000000E+00  5.465843417E+02  5.465843417E+02  0.000000000E+00  0.00000E+00  9.000E+00
       2    -1     0     0   513     0  0.000000000E+00  0.000000000E+00 -2.100505586E+03  2.100505586E+03  0.000000000E+00  0.00000E+00  9.000E+00
       2     1     1     2   511     0  5.176253268E+02 -1.176383267E+02 -1.045901118E+03  1.172895521E+03  0.000000000E+00  0.00000E+00  9.000E+00
      21     1     1     2   513   512 -6.920425280E+02  8.428754512E+01  2.151030804E+02  7.295865857E+02  1.452593442E-05  0.00000E+00  9.000E+00
      22     1     1     2     0     0  1.744172012E+02  3.335078159E+01 -7.231232069E+02  7.446078210E+02  7.629394531E-06  0.00000E+00  9.000E+00
#rwgt            1         187   1.4064036008387622E-002        6024     4323366           0
<rwgt>
<wgt id='central'>  0.612917754E+03 </wgt>
<wgt id='sudakovwgt'>  0.951032494E-03 </wgt>
<wgt id='scales0.50.5'>  0.816641980E+03 </wgt>
<wgt id='scales0.51.0'>  0.722900603E+03 </wgt>
<wgt id='scales1.00.5'>  0.692397498E+03 </wgt>
<wgt id='scales1.02.0'>  0.546829762E+03 </wgt>
<wgt id='scales2.01.0'>  0.526488216E+03 </wgt>
<wgt id='scales2.02.0'>  0.469719319E+03 </wgt>
</rwgt>
<scales uborns=' 0.706595135E+03'> </scales>
</event>
<event>
      4  10001  1.67488E+01  8.94427E-01  7.29735E-03  7.52340E-01
       1    -1     0     0   515     0  0.000000000E+00  0.000000000E+00  1.604551211E+03  1.604551211E+03  0.000000000E+00  0.00000E+00  9.000E+00
      21    -1     0     0   511   515  0.000000000E+00  0.000000000E+00 -1.268733471E+03  1.268733471E+03  0.000000000E+00  0.00000E+00  9.000E+00
       1     1     1     2   514     0  4.033612500E+02  1.274469037E+03  6.701255000E+02  1.495339363E+03  2.157918644E-05  0.00000E+00  9.000E+00
      21     1     1     2   511   514 -4.033612500E+02 -1.274469037E+03 -3.343077606E+02  1.377945319E+03  2.288818359E-05  0.00000E+00  9.000E+00
#rwgt            1         181   2.1086712968862993E-003        6024     4323830           0
<rwgt>
<wgt id='central'>  0.167488276E+02 </wgt>
<wgt id='sudakovwgt'>  0.285754358E+01 </wgt>
<wgt id='scales0.50.5'>  0.225575648E+02 </wgt>
<wgt id='scales0.51.0'>  0.195172028E+02 </wgt>
<wgt id='scales1.00.5'>  0.193579041E+02 </wgt>
<wgt id='scales1.02.0'>  0.146335759E+02 </wgt>
<wgt id='scales2.01.0'>  0.145354175E+02 </wgt>
<wgt id='scales2.02.0'>  0.126997238E+02 </wgt>
</rwgt>
<scales uborns=' 0.133677658E+04'> </scales>
</event>
<event>
      4  10001  2.98581E+06  8.94427E-01  7.29735E-03  7.43145E-01
      21    -1     0     0   513   511  0.000000000E+00  0.000000000E+00  3.271918986E+01  3.271918986E+01  0.000000000E+00  0.00000E+00  9.000E+00
       1    -1     0     0   511     0  0.000000000E+00  0.000000000E+00 -1.279286146E+03  1.279286146E+03  0.000000000E+00  0.00000E+00  9.000E+00
       1     1     1     2   512     0  7.742249676E+01 -1.503928689E+02 -9.922998374E+02  1.006613742E+03  1.078959322E-05  0.00000E+00  9.000E+00
      21     1     1     2   513   512 -7.742249676E+01  1.503928689E+02 -2.542671190E+02  3.053915943E+02  5.394796609E-06  0.00000E+00  9.000E+00
#rwgt            1         186   7.7144090060009369E-003        6024     4325285           0
<rwgt>
<wgt id='central'>  0.298581376E+07 </wgt>
<wgt id='sudakovwgt'>  0.135668125E+01 </wgt>
<wgt id='scales0.50.5'>  0.367262685E+07 </wgt>
<wgt id='scales0.51.0'>  0.364993248E+07 </wgt>
<wgt id='scales1.00.5'>  0.300437502E+07 </wgt>
<wgt id='scales1.02.0'>  0.294395084E+07 </wgt>
<wgt id='scales2.01.0'>  0.248978321E+07 </wgt>
<wgt id='scales2.02.0'>  0.245487803E+07 </wgt>
</rwgt>
<scales uborns=' 0.169151583E+03'> </scales>
</event>
<event>
      5  10001  2.62441E+03  6.52279E+00  7.29735E-03  2.19980E-01
       2    -1     0     0   512     0  0.000000000E+00  0.000000000E+00  1.171211005E+03  1.171211005E+03  0.000000000E+00  0.00000E+00  9.000E+00
      21    -1     0     0   514   515  0.000000000E+00  0.000000000E+00 -2.755687497E+02  2.755687497E+02  0.000000000E+00  0.00000E+00  9.000E+00
       2     1     1     2   514     0  4.673140190E+02 -2.941182959E+02  5.090578587E+02  7.510178879E+02  7.629394531E-06  0.00000E+00  9.000E+00
      21     1     1     2   512   515 -4.689853054E+02  2.878132532E+02  3.359439258E+02  6.447030376E+02  1.078959322E-05  0.00000E+00  9.000E+00
      22     1     1     2     0     0  1.671286406E+00  6.305042677E+00  5.064047122E+01  5.105882967E+01  9.536743164E-07  0.00000E+00  9.000E+00
#rwgt            1         182   6.9652125940326791E-003        6024     4326557           0
<rwgt>
<wgt id='central'>  0.262441386E+04 </wgt>
<wgt id='sudakovwgt'>  0.786626784E-01 </wgt>
<wgt id='scales0.50.5'>  0.333754097E+04 </wgt>
<wgt id='scales0.51.0'>  0.311162588E+04 </wgt>
<wgt id='scales1.00.5'>  0.281495149E+04 </wgt>
<wgt id='scales1.02.0'>  0.245330313E+04 </wgt>
<wgt id='scales2.01.0'>  0.224438535E+04 </wgt>
<wgt id='scales2.02.0'>  0.209805542E+04 </wgt>
</rwgt>
<scales uborns=' 0.551202586E+03'> </scales>
</event>
<event>
      5  10001  2.60648E+03  7.42051E+01  7.29735E-03  1.29950E-01
      -2    -1     0     0     0   511  0.000000000E+00  0.000000000E+00  8.605558194E+02  8.605558194E+02  0.000000000E+00  0.00000E+00  9.000E+00
       2    -1     0     0   511     0  0.000000000E+00  0.000000000E+00 -9.611570408E+02  9.611570408E+02  0.000000000E+00  0.00000E+00  9.000E+00
       2     1     1     2   512     0 -4.136082442E+01  5.466559750E+02 -7.692254287E+02  9.445905107E+02  1.525878906E-05  0.00000E+00  9.000E+00
      -2     1     1     2     0   512  8.899937386E+01 -4.538406427E+02  5.258505835E+02  7.002935482E+02  1.525878906E-05  0.00000E+00  9.000E+00
      22     1     1     2     0     0 -4.763854944E+01 -9.281533236E+01  1.427736238E+02  1.768288013E+02  3.814697266E-06  0.00000E+00  9.000E+00
#rwgt            1          72   3.5606748846154352E-004        6024     4331812           0
<rwgt>
<wgt id='central'>  0.260647938E+04 </wgt>
<wgt id='sudakovwgt'>  0.107512153E-02 </wgt>
<wgt id='scales0.50.5'>  0.331498311E+04 </wgt>
<wgt id='scales0.51.0'>  0.309028868E+04 </wgt>
<wgt id='scales1.00.5'>  0.279599677E+04 </wgt>
<wgt id='scales1.02.0'>  0.243864274E+04 </wgt>
<wgt id='scales2.01.0'>  0.222909928E+04 </wgt>
<wgt id='scales2.02.0'>  0.208556244E+04 </wgt>
</rwgt>
<scales uborns=' 0.551844884E+03'> </scales>
</event>
<event>
      4  10001  4.22060E+03  8.94427E-01  7.29735E-03  7.52639E-01
       2    -1     0     0   512     0  0.000000000E+00  0.000000000E+00  1.202313091E+03  1.202313091E+03  0.000000000E+00  0.00000E+00  9.000E+00
      21    -1     0     0   513   514  0.000000000E+00  0.000000000E+00 -4.152949448E+02  4.152949448E+02  0.000000000E+00  0.00000E+00  9.000E+00
       2     1     1     2   513     0  1.587576097E+02 -4.831152639E+02  9.550784890E+02  1.082025534E+03  1.078959322E-05  0.00000E+00  9.000E+00
      21     1     1     2   512   514 -1.587576097E+02  4.831152639E+02 -1.680603428E+02  5.355825013E+02  3.814697266E-06  0.00000E+00  9.000E+00
#rwgt            1         182   7.6961461639284776E-003        6024     4338083           0
<rwgt>
<wgt id='central'>  0.422059538E+04 </wgt>
<wgt id='sudakovwgt'>  0.265038700E+02 </wgt>
<wgt id='scales0.50.5'>  0.547772512E+04 </wgt>
<wgt id='scales0.51.0'>  0.501304690E+04 </wgt>
<wgt id='scales1.00.5'>  0.461182332E+04 </wgt>
<wgt id='scales1.02.0'>  0.388097080E+04 </wgt>
<wgt id='scales2.01.0'>  0.360406009E+04 </wgt>
<wgt id='scales2.02.0'>  0.331404350E+04 </wgt>
</rwgt>
<scales uborns=' 0.508531550E+03'> </scales>
</event>
<event>
      4  10001  8.20463E+05  8.94427E-01  7.29735E-03  7.44666E-01
      21    -1     0     0   513   515  0.000000000E+00  0.000000000E+00  4.180914827E+02  4.180914827E+02  0.000000000E+00  0.00000E+00  9.000E+00
       1    -1     0     0   515     0  0.000000000E+00  0.000000000E+00 -3.447104330E+02  3.447104330E+02  0.000000000E+00  0.00000E+00  9.000E+00
       1     1     1     2   511     0  1.645507040E+02  1.302907166E+02 -2.811185387E+02  3.508279320E+02  6.607249480E-06  0.00000E+00  9.000E+00
      21     1     1     2   513   511 -1.645507040E+02 -1.302907166E+02  3.544995884E+02  4.119739837E+02  3.814697266E-06  0.00000E+00  9.000E+00
#rwgt            1         186   2.2691814537984319E-003        6024     4356992           0
<rwgt>
<wgt id='central'>  0.820462603E+06 </wgt>
<wgt id='sudakovwgt'>  0.181759042E+01 </wgt>
<wgt id='scales0.50.5'>  0.105985614E+07 </wgt>
<wgt id='scales0.51.0'>  0.996558559E+06 </wgt>
<wgt id='scales1.00.5'>  0.872575666E+06 </wgt>
<wgt id='scales1.02.0'>  0.772621846E+06 </wgt>
<wgt id='scales2.01.0'>  0.687742026E+06 </wgt>
<wgt id='scales2.02.0'>  0.647639824E+06 </wgt>
</rwgt>
<scales uborns=' 0.209887124E+03'> </scales>
</event>
<event>
      5  10001  1.92206E+09  9.28161E-01  7.29735E-03  7.15911E-01
      21    -1     0     0   512   514  0.000000000E+00  0.000000000E+00  3.217904700E+01  3.217904700E+01  0.000000000E+00  0.00000E+00  9.000E+00
      -2    -1     0     0     0   512  0.000000000E+00  0.000000000E+00 -1.320927160E+02  1.320927160E+02  0.000000000E+00  0.00000E+00  9.000E+00
      -2     1     1     2     0   511  3.723656786E+01 -2.668405080E+01 -6.962729954E+01  8.334603406E+01  0.000000000E+00  0.00000E+00  9.000E+00
      21     1     1     2   511   514 -4.712150528E+01  3.296649485E+01 -1.128602333E+01  5.860546361E+01  1.545128989E-06  0.00000E+00  9.000E+00
      22     1     1     2     0     0  9.884937416E+00 -6.282444047E+00 -1.900034615E+01  2.232026533E+01  5.331201500E-07  0.00000E+00  9.000E+00
#rwgt            1         197   9.7718402728575837E-004        6024     4358297           0
<rwgt>
<wgt id='central'>  0.192205636E+10 </wgt>
<wgt id='sudakovwgt'>  0.897357958E-01 </wgt>
<wgt id='scales0.50.5'>  0.216799082E+10 </wgt>
<wgt id='scales0.51.0'>  0.244525190E+10 </wgt>
<wgt id='scales1.00.5'>  0.170412236E+10 </wgt>
<wgt id='scales1.02.0'>  0.210161026E+10 </wgt>
<wgt id='scales2.01.0'>  0.155266155E+10 </wgt>
<wgt id='scales2.02.0'>  0.169770426E+10 </wgt>
</rwgt>
<scales uborns=' 0.575195871E+02'> </scales>
</event>
<event>
      5  10001  3.27833E+02  5.77483E+02  7.29735E-03  9.71063E-02
      21    -1     0     0   513   515  0.000000000E+00  0.000000000E+00  7.615392616E+02  7.615392616E+02  0.000000000E+00  0.00000E+00  9.000E+00
       2    -1     0     0   514     0  0.000000000E+00  0.000000000E+00 -1.725967605E+03  1.725967605E+03  0.000000000E+00  0.00000E+00  9.000E+00
      22     1     1     2     0     0  3.900421013E+01 -3.061005071E+02 -1.272460210E+03  1.309340993E+03  2.642899792E-05  0.00000E+00  9.000E+00
      21     1     1     2   514   515  1.372398681E+02  6.668954682E+02  3.651137432E+02  7.725881130E+02  1.321449896E-05  0.00000E+00  9.000E+00
       2     1     1     2   513     0 -1.762440783E+02 -3.607949611E+02 -5.708187599E+01  4.055777603E+02  5.478441855E-06  0.00000E+00  9.000E+00
#rwgt            1         187   1.1550784484459953E-002        6024     4362252           0
<rwgt>
<wgt id='central'>  0.327832824E+03 </wgt>
<wgt id='sudakovwgt'>  0.463512558E-01 </wgt>
<wgt id='scales0.50.5'>  0.436057307E+03 </wgt>
<wgt id='scales0.51.0'>  0.385818149E+03 </wgt>
<wgt id='scales1.00.5'>  0.370521645E+03 </wgt>
<wgt id='scales1.02.0'>  0.292382872E+03 </wgt>
<wgt id='scales2.01.0'>  0.282123537E+03 </wgt>
<wgt id='scales2.02.0'>  0.251616189E+03 </wgt>
</rwgt>
<scales uborns=' 0.787117372E+03'> </scales>
</event>
<event>
      5  10001  3.65769E+01  1.25903E+02  7.29735E-03  1.19490E-01
       1    -1     0     0   512     0  0.000000000E+00  0.000000000E+00  2.123321949E+03  2.123321949E+03  0.000000000E+00  0.00000E+00  9.000E+00
       2    -1     0     0   511     0  0.000000000E+00  0.000000000E+00 -6.840258880E+02  6.840258880E+02  0.000000000E+00  0.00000E+00  9.000E+00
       1     1     1     2   511     0  1.736149084E+02 -1.117518735E+03  1.078320871E+03  1.562615167E+03  2.642899792E-05  0.00000E+00  9.000E+00
      22     1     1     2     0     0 -6.491998959E+01  1.070458422E+03  3.342854591E+02  1.123317678E+03  3.618939583E-05  0.00000E+00  9.000E+00
       2     1     1     2   512     0 -1.086949188E+02  4.706031337E+01  2.668973130E+01  1.214149918E+02  2.977847099E-06  0.00000E+00  9.000E+00
#rwgt            1          96   9.6547840446128302E-004        6024     4362624           0
<rwgt>
<wgt id='central'>  0.365768919E+02 </wgt>
<wgt id='sudakovwgt'>  0.329854463E-02 </wgt>
<wgt id='scales0.50.5'>  0.468625143E+02 </wgt>
<wgt id='scales0.51.0'>  0.427312686E+02 </wgt>
<wgt id='scales1.00.5'>  0.401131433E+02 </wgt>
<wgt id='scales1.02.0'>  0.335365706E+02 </wgt>
<wgt id='scales2.01.0'>  0.316742538E+02 </wgt>
<wgt id='scales2.02.0'>  0.290414401E+02 </wgt>
</rwgt>
<scales uborns=' 0.115886391E+04'> </scales>
</event>
<event>
      5  10001  1.33882E+03  4.43676E+01  7.29735E-03  1.42103E-01
      21    -1     0     0   511   514  0.000000000E+00  0.000000000E+00  5.243714087E+02  5.243714087E+02  0.000000000E+00  0.00000E+00  9.000E+00
       2    -1     0     0   514     0  0.000000000E+00  0.000000000E+00 -1.126181391E+03  1.126181391E+03  0.000000000E+00  0.00000E+00  9.000E+00
      22     1     1     2     0     0 -5.531720358E+01 -6.401846601E+01 -1.185648783E+02  1.456570883E+02  0.000000000E+00  0.00000E+00  9.000E+00
      21     1     1     2   511   513  4.093220407E+02  4.630498967E+02  1.894103255E+02  6.464023601E+02  1.618438983E-05  0.00000E+00  9.000E+00
       2     1     1     2   513     0 -3.540048371E+02 -3.990314307E+02 -6.726554298E+02  8.584933515E+02  1.525878906E-05  0.00000E+00  9.000E+00
#rwgt            1         187   8.9563319970782009E-003        6024     4407201           0
<rwgt>
<wgt id='central'>  0.133881902E+04 </wgt>
<wgt id='sudakovwgt'>  0.589245777E-03 </wgt>
<wgt id='scales0.50.5'>  0.173731565E+04 </wgt>
<wgt id='scales0.51.0'>  0.158346360E+04 </wgt>
<wgt id='scales1.00.5'>  0.146890205E+04 </wgt>
<wgt id='scales1.02.0'>  0.122672873E+04 </wgt>
<wgt id='scales2.01.0'>  0.114732892E+04 </wgt>
<wgt id='scales2.02.0'>  0.105127003E+04 </wgt>
</rwgt>
<scales uborns=' 0.618114951E+03'> </scales>
</event>
<event>
      5  10001  2.55063E+02  3.01491E+01  7.29735E-03  1.52890E-01
      -2    -1     0     0     0   512  0.000000000E+00  0.000000000E+00  7.630584038E+02  7.630584038E+02  0.000000000E+00  0.00000E+00  9.000E+00
      21    -1     0     0   512   515  0.000000000E+00  0.000000000E+00 -9.057104132E+02  9.057104132E+02  0.000000000E+00  0.00000E+00  9.000E+00
      -2     1     1     2     0   513 -6.286068970E+02 -3.938536613E+02  2.328903143E+01  7.421655587E+02  1.837215886E-05  0.00000E+00  9.000E+00
      21     1     1     2   513   515  7.016299386E+02  4.240265710E+02 -1.945446788E+02  8.425738755E+02  5.394796609E-06  0.00000E+00  9.000E+00
      22     1     1     2     0     0 -7.302304159E+01 -3.017290970E+01  2.860363784E+01  8.402938284E+01  1.168007728E-06  0.00000E+00  9.000E+00
#rwgt            1         192   3.7253438689192133E-004        6024     4407788           0
<rwgt>
<wgt id='central'>  0.255062647E+03 </wgt>
<wgt id='sudakovwgt'>  0.532952789E-03 </wgt>
<wgt id='scales0.50.5'>  0.335696163E+03 </wgt>
<wgt id='scales0.51.0'>  0.299918347E+03 </wgt>
<wgt id='scales1.00.5'>  0.285489939E+03 </wgt>
<wgt id='scales1.02.0'>  0.229467225E+03 </wgt>
<wgt id='scales2.01.0'>  0.219660176E+03 </wgt>
<wgt id='scales2.02.0'>  0.197617103E+03 </wgt>
</rwgt>
<scales uborns=' 0.822133017E+03'> </scales>
</event>
<event>
      5  10001  2.56942E+04  1.57110E+01  7.29735E-03  1.75509E-01
      21    -1     0     0   514   512  0.000000000E+00  0.000000000E+00  2.189749457E+02  2.189749457E+02  0.000000000E+00  0.00000E+00  9.000E+00
       2    -1     0     0   512     0  0.000000000E+00  0.000000000E+00 -6.843545179E+02  6.843545179E+02  0.000000000E+00  0.00000E+00  9.000E+00
       2     1     1     2   511     0  3.410713087E+02 -1.447439738E+02 -3.483621365E+02  5.085633035E+02  3.814697266E-06  0.00000E+00  9.000E+00
      21     1     1     2   514   511 -3.366259154E+02  1.505536255E+02 -1.184414713E+02  3.873135464E+02  1.348699152E-06  0.00000E+00  9.000E+00
      22     1     1     2     0     0 -4.445393268E+00 -5.809651639E+00  1.424035651E+00  7.452613703E+00  1.134838627E-07  0.00000E+00  9.000E+00
#rwgt            1         187   6.0957822347812727E-003        6024     4408429           0
<rwgt>
<wgt id='central'>  0.256942182E+05 </wgt>
<wgt id='sudakovwgt'>  0.337951724E+00 </wgt>
<wgt id='scales0.50.5'>  0.321664609E+05 </wgt>
<wgt id='scales0.51.0'>  0.307353116E+05 </wgt>
<wgt id='scales1.00.5'>  0.268906166E+05 </wgt>
<wgt id='scales1.02.0'>  0.245471426E+05 </wgt>
<wgt id='scales2.01.0'>  0.218114227E+05 </wgt>
<wgt id='scales2.02.0'>  0.208377028E+05 </wgt>
</rwgt>
<scales uborns=' 0.374966520E+03'> </scales>
</event>
<event>
      5  10001  4.30453E+02  2.36386E+01  7.29735E-03  1.60594E-01
       2    -1     0     0   511     0  0.000000000E+00  0.000000000E+00  1.473797892E+03  1.473797892E+03  0.000000000E+00  0.00000E+00  9.000E+00
      21    -1     0     0   513   515  0.000000000E+00  0.000000000E+00 -5.135231656E+02  5.135231656E+02  0.000000000E+00  0.00000E+00  9.000E+00
       2     1     1     2   513     0 -3.542816550E+02 -6.513801005E+02  8.341629499E+02  1.116082145E+03  1.525878906E-05  0.00000E+00  9.000E+00
      21     1     1     2   511   515  3.757822873E+02  6.612038611E+02  1.817624660E+01  7.607451934E+02  2.333824414E-05  0.00000E+00  9.000E+00
      22     1     1     2     0     0 -2.150063227E+01 -9.823760664E+00  1.079355302E+02  1.104937199E+02  1.907348633E-06  0.00000E+00  9.000E+00
#rwgt            1         182   7.8041195778332552E-003        6024     4409398           0
<rwgt>
<wgt id='central'>  0.430452597E+03 </wgt>
<wgt id='sudakovwgt'>  0.516644289E-01 </wgt>
<wgt id='scales0.50.5'>  0.559277938E+03 </wgt>
<wgt id='scales0.51.0'>  0.507066860E+03 </wgt>
<wgt id='scales1.00.5'>  0.474775390E+03 </wgt>
<wgt id='scales1.02.0'>  0.392501995E+03 </wgt>
<wgt id='scales2.01.0'>  0.370139797E+03 </wgt>
<wgt id='scales2.02.0'>  0.337506322E+03 </wgt>
</rwgt>
<scales uborns=' 0.750929032E+03'> </scales>
</event>
<event>
      5  10001  1.21071E+03  2.68789E+02  7.29735E-03  1.07166E-01
      21    -1     0     0   512   513  0.000000000E+00  0.000000000E+00  2.425282751E+02  2.425282751E+02  0.000000000E+00  0.00000E+00  9.000E+00
       2    -1     0     0   514     0  0.000000000E+00  0.000000000E+00 -2.076161376E+03  2.076161376E+03  0.000000000E+00  0.00000E+00  9.000E+00
      22     1     1     2     0     0 -1.095635122E+01 -1.764803460E+01 -2.208481457E+01  3.031886857E+01  2.384185791E-07  0.00000E+00  9.000E+00
      21     1     1     2   514   513  2.222062433E+02  5.875166805E+02 -1.452431526E+03  1.582437614E+03  0.000000000E+00  0.00000E+00  9.000E+00
       2     1     1     2   512     0 -2.112498921E+02 -5.698686459E+02 -3.591167598E+02  7.059331680E+02  5.394796609E-06  0.00000E+00  9.000E+00
#rwgt            1         187   2.3446973209728969E-003        6024     4412223           0
<rwgt>
<wgt id='central'>  0.121070564E+04 </wgt>
<wgt id='sudakovwgt'>  0.547310858E-01 </wgt>
<wgt id='scales0.50.5'>  0.157318886E+04 </wgt>
<wgt id='scales0.51.0'>  0.143142441E+04 </wgt>
<wgt id='scales1.00.5'>  0.133061548E+04 </wgt>
<wgt id='scales1.02.0'>  0.110672992E+04 </wgt>
<wgt id='scales2.01.0'>  0.103785974E+04 </wgt>
<wgt id='scales2.02.0'>  0.948724658E+03 </wgt>
</rwgt>
<scales uborns=' 0.628820472E+03'> </scales>
</event>
<event>
      5  10001  8.38755E+02  1.25448E+02  7.29735E-03  1.19555E-01
      21    -1     0     0   515   513  0.000000000E+00  0.000000000E+00  1.316230181E+03  1.316230181E+03  0.000000000E+00  0.00000E+00  9.000E+00
       3    -1     0     0   513     0  0.000000000E+00  0.000000000E+00 -1.030416822E+03  1.030416822E+03  0.000000000E+00  0.00000E+00  9.000E+00
       3     1     1     2   511     0  4.713652122E+02  4.805140974E+02 -9.671572196E+01  6.800241848E+02  1.902574286E-05  0.00000E+00  9.000E+00
      21     1     1     2   515   511 -5.513979645E+02 -3.839116546E+02  9.062158670E+02  1.128120149E+03  0.000000000E+00  0.00000E+00  9.000E+00
      22     1     1     2     0     0  8.003275223E+01 -9.660244276E+01 -5.236867861E+02  5.385026679E+02  7.629394531E-06  0.00000E+00  9.000E+00
#rwgt            1         188   3.4952860911056731E-004        6024     4412619           0
<rwgt>
<wgt id='central'>  0.838754623E+03 </wgt>
<wgt id='sudakovwgt'>  0.221915334E-01 </wgt>
<wgt id='scales0.50.5'>  0.110056406E+04 </wgt>
<wgt id='scales0.51.0'>  0.990359939E+03 </wgt>
<wgt id='scales1.00.5'>  0.932089003E+03 </wgt>
<wgt id='scales1.02.0'>  0.759013059E+03 </wgt>
<wgt id='scales2.01.0'>  0.719804628E+03 </wgt>
<wgt id='scales2.02.0'>  0.651371512E+03 </wgt>
</rwgt>
<scales uborns=' 0.669566157E+03'> </scales>
</event>
<event>
      4  10001  7.60143E+03  8.94427E-01  7.29735E-03  7.52672E-01
       2    -1     0     0   511     0  0.000000000E+00  0.000000000E+00  1.403947206E+03  1.403947206E+03  0.000000000E+00  0.00000E+00  9.000E+00
      21    -1     0     0   512   514  0.000000000E+00  0.000000000E+00 -2.789713831E+02  2.789713831E+02  0.000000000E+00  0.00000E+00  9.000E+00
       2     1     1     2   512     0  4.190051491E+02 -1.907225551E+02  1.132490633E+03  1.222487399E+03  0.000000000E+00  0.00000E+00  9.000E+00
      21     1     1     2   511   514 -4.190051491E+02  1.907225551E+02 -7.514810057E+00  4.604311896E+02  7.226187491E-06  0.00000E+00  9.000E+00
#rwgt            1         182   9.5389986255769044E-003        6024     4412887           0
<rwgt>
<wgt id='central'>  0.760142548E+04 </wgt>
<wgt id='sudakovwgt'>  0.140264837E+02 </wgt>
<wgt id='scales0.50.5'>  0.981139932E+04 </wgt>
<wgt id='scales0.51.0'>  0.904897056E+04 </wgt>
<wgt id='scales1.00.5'>  0.824189499E+04 </wgt>
<wgt id='scales1.02.0'>  0.703581107E+04 </wgt>
<wgt id='scales2.01.0'>  0.647881209E+04 </wgt>
<wgt id='scales2.02.0'>  0.599672665E+04 </wgt>
</rwgt>
<scales uborns=' 0.460369860E+03'> </scales>
</event>
<event>
      4  10001  1.11824E+03  8.94427E-01  7.29735E-03  7.51711E-01
      21    -1     0     0   513   512  0.000000000E+00  0.000000000E+00  4.297715576E+02  4.297715576E+02  0.000000000E+00  0.00000E+00  9.000E+00
       1    -1     0     0   515     0  0.000000000E+00  0.000000000E+00 -9.939305319E+02  9.939305319E+02  0.000000000E+00  0.00000E+00  9.000E+00
       1     1     1     2   513     0  2.496806541E+02 -5.864777953E+02 -1.247477090E+02  6.495064467E+02  1.213829237E-05  0.00000E+00  9.000E+00
      21     1     1     2   515   512 -2.496806541E+02  5.864777953E+02 -4.394112654E+02  7.741956429E+02  0.000000000E+00  0.00000E+00  9.000E+00
#rwgt            1         186   1.2898291716453686E-003        6024     4431316           0
<rwgt>
<wgt id='central'>  0.111823570E+04 </wgt>
<wgt id='sudakovwgt'>  0.252480312E+01 </wgt>
<wgt id='scales0.50.5'>  0.144772423E+04 </wgt>
<wgt id='scales0.51.0'>  0.132171928E+04 </wgt>
<wgt id='scales1.00.5'>  0.122484644E+04 </wgt>
<wgt id='scales1.02.0'>  0.102597384E+04 </wgt>
<wgt id='scales2.01.0'>  0.958822348E+03 </wgt>
<wgt id='scales2.02.0'>  0.879709765E+03 </wgt>
</rwgt>
<scales uborns=' 0.637414020E+03'> </scales>
</event>
<event>
      5  10001  4.67247E+03  4.21597E+01  7.29735E-03  1.43438E-01
       2    -1     0     0   514     0  0.000000000E+00  0.000000000E+00  1.699161892E+03  1.699161892E+03  0.000000000E+00  0.00000E+00  9.000E+00
      21    -1     0     0   513   514  0.000000000E+00  0.000000000E+00 -6.798934800E+02  6.798934800E+02  0.000000000E+00  0.00000E+00  9.000E+00
       2     1     1     2   511     0  1.279659887E+01  4.377071281E+02  1.257855870E+03  1.331898146E+03  2.157918644E-05  0.00000E+00  9.000E+00
      21     1     1     2   513   511 -2.018019961E+01 -4.985930320E+02 -5.425134983E+02  7.371045705E+02  7.629394531E-06  0.00000E+00  9.000E+00
      22     1     1     2     0     0  7.383600744E+00  6.088590396E+01  3.039260410E+02  3.100526556E+02  3.814697266E-06  0.00000E+00  9.000E+00
#rwgt            1         182   9.0813755344441322E-003        6024     4432998           0
<rwgt>
<wgt id='central'>  0.467246703E+04 </wgt>
<wgt id='sudakovwgt'>  0.142949710E-02 </wgt>
<wgt id='scales0.50.5'>  0.627797619E+04 </wgt>
<wgt id='scales0.51.0'>  0.555189469E+04 </wgt>
<wgt id='scales1.00.5'>  0.528353959E+04 </wgt>
<wgt id='scales1.02.0'>  0.416575401E+04 </wgt>
<wgt id='scales2.01.0'>  0.398863438E+04 </wgt>
<wgt id='scales2.02.0'>  0.355607841E+04 </wgt>
</rwgt>
<scales uborns=' 0.499849024E+03'> </scales>
</event>
<event>
      5  10001  2.09928E+01  2.39862E+03  7.29735E-03  8.27123E-02
       2    -1     0     0   511     0  0.000000000E+00  0.000000000E+00  1.663718770E+03  1.663718770E+03  0.000000000E+00  0.00000E+00  9.000E+00
       2    -1     0     0   512     0  0.000000000E+00  0.000000000E+00 -9.905956552E+02  9.905956552E+02  0.000000000E+00  0.00000E+00  9.000E+00
       2     1     1     2   512     0 -1.220968979E+03 -3.300580756E+02  2.674245873E+02  1.292756547E+03  2.777141529E-05  0.00000E+00  9.000E+00
      22     1     1     2     0     0 -1.468423990E+01 -1.596378642E-01 -8.719198670E+00  1.707854827E+01  2.064765462E-07  0.00000E+00  9.000E+00
       2     1     1     2   511     0  1.235653219E+03  3.302177135E+02  4.144177261E+02  1.344479330E+03  1.525878906E-05  0.00000E+00  9.000E+00
#rwgt            1          97   1.7781458420250270E-003        6024     4435481           0
<rwgt>
<wgt id='central'>  0.209928394E+02 </wgt>
<wgt id='sudakovwgt'>  0.826436459E-03 </wgt>
<wgt id='scales0.50.5'>  0.264210860E+02 </wgt>
<wgt id='scales0.51.0'>  0.244806448E+02 </wgt>
<wgt id='scales1.00.5'>  0.226567796E+02 </wgt>
<wgt id='scales1.02.0'>  0.195371398E+02 </wgt>
<wgt id='scales2.01.0'>  0.182071365E+02 </wgt>
<wgt id='scales2.02.0'>  0.169446368E+02 </wgt>
</rwgt>
<scales uborns=' 0.128221052E+04'> </scales>
</event>
<event>
      5  10001  8.58462E+01  1.42098E+02  7.29735E-03  1.17333E-01
      21    -1     0     0   513   512  0.000000000E+00  0.000000000E+00  4.065000253E+02  4.065000253E+02  0.000000000E+00  0.00000E+00  9.000E+00
       2    -1     0     0   511     0  0.000000000E+00  0.000000000E+00 -2.437496912E+03  2.437496912E+03  0.000000000E+00  0.00000E+00  9.000E+00
       2     1     1     2   513     0  4.441097523E+02  6.168940104E+02 -7.193888998E+02  1.046571584E+03  2.954851796E-05  0.00000E+00  9.000E+00
      21     1     1     2   511   512 -4.791109362E+02 -8.543586338E+02 -9.586109267E+02  1.370551303E+03  2.412626389E-05  0.00000E+00  9.000E+00
      22     1     1     2     0     0  3.500118394E+01  2.374646234E+02 -3.529970599E+02  4.268740500E+02  1.009274029E-05  0.00000E+00  9.000E+00
#rwgt            1         187   8.1915618967513138E-003        6024     4435615           0
<rwgt>
<wgt id='central'>  0.858461794E+02 </wgt>
<wgt id='sudakovwgt'>  0.730732349E-03 </wgt>
<wgt id='scales0.50.5'>  0.113163101E+03 </wgt>
<wgt id='scales0.51.0'>  0.100573127E+03 </wgt>
<wgt id='scales1.00.5'>  0.965926236E+02 </wgt>
<wgt id='scales1.02.0'>  0.768419719E+02 </wgt>
<wgt id='scales2.01.0'>  0.741616254E+02 </wgt>
<wgt id='scales2.02.0'>  0.663829678E+02 </wgt>
</rwgt>
<scales uborns=' 0.994981325E+03'> </scales>
</event>
<event>
      5  10001  6.82802E+06  2.39978E+01  7.29735E-03  1.60093E-01
       2    -1     0     0   513     0  0.000000000E+00  0.000000000E+00  1.157332347E+03  1.157332347E+03  0.000000000E+00  0.00000E+00  9.000E+00
       5    -1     0     0   514     0  0.000000000E+00  0.000000000E+00 -9.472055768E+01  9.472055768E+01  0.000000000E+00  0.00000E+00  9.000E+00
       2     1     1     2   514     0 -8.961214191E+01 -1.284896427E+02  8.763759219E+02  8.902666346E+02  1.525878906E-05  0.00000E+00  9.000E+00
       5     1     1     2   513     0  9.098200642E+01  1.045309954E+02 -3.200669983E+01  1.422282789E+02  3.600041597E-06  0.00000E+00  9.000E+00
      22     1     1     2     0     0 -1.369864512E+00  2.395864735E+01  2.182425668E+02  2.195579907E+02  2.697398305E-06  0.00000E+00  9.000E+00
#rwgt            1         112   1.1770948220070869E-004        6024     4435965           0
<rwgt>
<wgt id='central'>  0.682801935E+07 </wgt>
<wgt id='sudakovwgt'>  0.310409992E-01 </wgt>
<wgt id='scales0.50.5'>  0.750885993E+07 </wgt>
<wgt id='scales0.51.0'>  0.838295648E+07 </wgt>
<wgt id='scales1.00.5'>  0.611605773E+07 </wgt>
<wgt id='scales1.02.0'>  0.736273158E+07 </wgt>
<wgt id='scales2.01.0'>  0.567373955E+07 </wgt>
<wgt id='scales2.02.0'>  0.611805785E+07 </wgt>
</rwgt>
<scales uborns=' 0.147336554E+03'> </scales>
</event>
<event>
      5  10001  8.83756E+01  1.48433E+01  7.29735E-03  1.77814E-01
       2    -1     0     0   514     0  0.000000000E+00  0.000000000E+00  1.320054690E+03  1.320054690E+03  0.000000000E+00  0.00000E+00  9.000E+00
      21    -1     0     0   511   512  0.000000000E+00  0.000000000E+00 -1.049754171E+03  1.049754171E+03  0.000000000E+00  0.00000E+00  9.000E+00
       2     1     1     2   511     0 -1.926798686E+02  9.083730836E+02  7.460651038E+02  1.191167633E+03  1.525878906E-05  0.00000E+00  9.000E+00
      21     1     1     2   514   512  2.057915843E+02 -9.675617929E+02 -5.057641235E+02  1.111001057E+03  9.344061824E-06  0.00000E+00  9.000E+00
      22     1     1     2     0     0 -1.311171574E+01  5.918870929E+01  2.999953931E+01  6.764017117E+01  9.536743164E-07  0.00000E+00  9.000E+00
#rwgt            1         182   5.8828159054569468E-003        6024     4437486           0
<rwgt>
<wgt id='central'>  0.883756362E+02 </wgt>
<wgt id='sudakovwgt'>  0.140358203E-02 </wgt>
<wgt id='scales0.50.5'>  0.116877744E+03 </wgt>
<wgt id='scales0.51.0'>  0.103546451E+03 </wgt>
<wgt id='scales1.00.5'>  0.997536915E+02 </wgt>
<wgt id='scales1.02.0'>  0.789282312E+02 </wgt>
<wgt id='scales2.01.0'>  0.763404705E+02 </wgt>
<wgt id='scales2.02.0'>  0.681796593E+02 </wgt>
</rwgt>
<scales uborns=' 0.989882416E+03'> </scales>
</event>
<event>
      5  10001  1.64188E+01  2.70686E+02  7.29735E-03  1.07063E-01
       2    -1     0     0   512     0  0.000000000E+00  0.000000000E+00  3.790813245E+03  3.790813245E+03  0.000000000E+00  0.00000E+00  9.000E+00
      21    -1     0     0   515   512  0.000000000E+00  0.000000000E+00 -5.970288045E+02  5.970288045E+02  0.000000000E+00  0.00000E+00  9.000E+00
       2     1     1     2   513     0  2.866978416E+02 -1.066604991E+03  2.589179311E+03  2.814905214E+03  0.000000000E+00  0.00000E+00  9.000E+00
      21     1     1     2   515   513 -3.455340035E+02  1.227674732E+03  5.746648632E+02  1.398863360E+03  1.321449896E-05  0.00000E+00  9.000E+00
      22     1     1     2     0     0  5.883616189E+01 -1.610697409E+02  2.994026625E+01  1.740734757E+02  4.434841928E-06  0.00000E+00  9.000E+00
#rwgt            1         182   9.8706586441717915E-003        6024     4441690           0
<rwgt>
<wgt id='central'>  0.164188286E+02 </wgt>
<wgt id='sudakovwgt'>  0.967186098E-03 </wgt>
<wgt id='scales0.50.5'>  0.224332054E+02 </wgt>
<wgt id='scales0.51.0'>  0.191314217E+02 </wgt>
<wgt id='scales1.00.5'>  0.192524277E+02 </wgt>
<wgt id='scales1.02.0'>  0.141499013E+02 </wgt>
<wgt id='scales2.01.0'>  0.142498150E+02 </wgt>
<wgt id='scales2.02.0'>  0.122806464E+02 </wgt>
</rwgt>
<scales uborns=' 0.134171621E+04'> </scales>
</event>
<event>
      5  10001  2.07653E+02  1.44578E+01  7.29735E-03  1.78903E-01
      -1    -1     0     0     0   511  0.000000000E+00  0.000000000E+00  6.937837218E+02  6.937837218E+02  0.000000000E+00  0.00000E+00  9.000E+00
       2    -1     0     0   511     0  0.000000000E+00  0.000000000E+00 -1.435735361E+03  1.435735361E+03  0.000000000E+00  0.00000E+00  9.000E+00
       2     1     1     2   512     0 -8.458961818E+02 -6.206342347E+01 -9.036717421E+02  1.239360656E+03  3.051757812E-05  0.00000E+00  9.000E+00
      -1     1     1     2     0   512  8.465635500E+02  6.642048436E+01  1.828038104E+02  8.686188796E+02  8.946258087E-06  0.00000E+00  9.000E+00
      22     1     1     2     0     0 -6.673682314E-01 -4.357060886E+00 -2.108370782E+01  2.153954724E+01  3.371747881E-07  0.00000E+00  9.000E+00
#rwgt            1         161   6.5616176055329823E-004        6024     4442489           0
<rwgt>
<wgt id='central'>  0.207652754E+03 </wgt>
<wgt id='sudakovwgt'>  0.208611754E-02 </wgt>
<wgt id='scales0.50.5'>  0.264373770E+03 </wgt>
<wgt id='scales0.51.0'>  0.243999572E+03 </wgt>
<wgt id='scales1.00.5'>  0.224992224E+03 </wgt>
<wgt id='scales1.02.0'>  0.192513603E+03 </wgt>
<wgt id='scales2.01.0'>  0.178937122E+03 </wgt>
<wgt id='scales2.02.0'>  0.165891319E+03 </wgt>
</rwgt>
<scales uborns=' 0.852076868E+03'> </scales>
</event>
<event>
      5  10001  8.95132E+01  9.83959E-01  7.29735E-03  6.65030E-01
       1    -1     0     0   512     0  0.000000000E+00  0.000000000E+00  1.689859485E+03  1.689859485E+03  0.000000000E+00  0.00000E+00  9.000E+00
      21    -1     0     0   513   514  0.000000000E+00  0.000000000E+00 -7.441072814E+02  7.441072814E+02  0.000000000E+00  0.00000E+00  9.000E+00
       1     1     1     2   513     0 -1.940324427E+01 -9.841172952E+02 -1.026207506E+02  9.896435495E+02  2.036491061E-05  0.00000E+00  9.000E+00
      21     1     1     2   512   514  2.032522941E+01  9.873849793E+02  1.049136279E+03  1.440843206E+03  1.525878906E-05  0.00000E+00  9.000E+00
      22     1     1     2     0     0 -9.219851431E-01 -3.267684094E+00 -7.633239843E-01  3.480011414E+00  4.344397705E-08  0.00000E+00  9.000E+00
#rwgt            1         181   5.9001999421284660E-004        6024     4453236           0
<rwgt>
<wgt id='central'>  0.895131862E+02 </wgt>
<wgt id='sudakovwgt'>  0.335714623E-01 </wgt>
<wgt id='scales0.50.5'>  0.119368513E+03 </wgt>
<wgt id='scales0.51.0'>  0.104883801E+03 </wgt>
<wgt id='scales1.00.5'>  0.101875194E+03 </wgt>
<wgt id='scales1.02.0'>  0.793067691E+02 </wgt>
<wgt id='scales2.01.0'>  0.773203492E+02 </wgt>
<wgt id='scales2.02.0'>  0.685041657E+02 </wgt>
</rwgt>
<scales uborns=' 0.987645979E+03'> </scales>
</event>
<event>
      5  10001  5.71347E+00  1.36320E+02  7.29735E-03  1.18064E-01
       2    -1     0     0   513     0  0.000000000E+00  0.000000000E+00  3.505340601E+03  3.505340601E+03  0.000000000E+00  0.00000E+00  9.000E+00
      21    -1     0     0   511   515  0.000000000E+00  0.000000000E+00 -8.570672619E+02  8.570672619E+02  0.000000000E+00  0.00000E+00  9.000E+00
      22     1     1     2     0     0 -9.091818851E+02  3.488286443E+02  1.290591669E+03  1.616762190E+03  0.000000000E+00  0.00000E+00  9.000E+00
      21     1     1     2   513   515  1.485174232E+03 -6.844661339E+02  6.136753276E+02  1.746663618E+03  2.018548058E-05  0.00000E+00  9.000E+00
       2     1     1     2   511     0 -5.759923466E+02  3.356374896E+02  7.440063427E+02  9.989820547E+02  1.078959322E-05  0.00000E+00  9.000E+00
#rwgt            1         182   7.3090285284842542E-003        6024     4454174           0
<rwgt>
<wgt id='central'>  0.571346821E+01 </wgt>
<wgt id='sudakovwgt'>  0.649499911E-03 </wgt>
<wgt id='scales0.50.5'>  0.779457004E+01 </wgt>
<wgt id='scales0.51.0'>  0.663465910E+01 </wgt>
<wgt id='scales1.00.5'>  0.671233313E+01 </wgt>
<wgt id='scales1.02.0'>  0.491559591E+01 </wgt>
<wgt id='scales2.01.0'>  0.497327810E+01 </wgt>
<wgt id='scales2.02.0'>  0.427877026E+01 </wgt>
</rwgt>
<scales uborns=' 0.163916840E+04'> </scales>
</event>
<event>
      5  10001  3.96959E+01  2.54682E+01  7.29735E-03  1.58149E-01
      21    -1     0     0   512   514  0.000000000E+00  0.000000000E+00  1.897703312E+03  1.897703312E+03  0.000000000E+00  0.00000E+00  9.000E+00
       2    -1     0     0   514     0  0.000000000E+00  0.000000000E+00 -8.324899515E+02  8.324899515E+02  0.000000000E+00  0.00000E+00  9.000E+00
      22     1     1     2     0     0 -2.782249122E+02 -3.250176606E+02 -1.185780690E+01  4.280025573E+02  6.421829987E-06  0.00000E+00  9.000E+00
      21     1     1     2   512   511  7.610784147E+02  8.511655989E+02  1.103049881E+03  1.587590083E+03  1.525878906E-05  0.00000E+00  9.000E+00
       2     1     1     2   511     0 -4.828535026E+02 -5.261479383E+02 -2.597871351E+01  7.146006238E+02  3.724217260E-06  0.00000E+00  9.000E+00
#rwgt            1         187   2.4571462690129746E-003        6024     4455726           0
<rwgt>
<wgt id='central'>  0.396959478E+02 </wgt>
<wgt id='sudakovwgt'>  0.871827327E-03 </wgt>
<wgt id='scales0.50.5'>  0.531421258E+02 </wgt>
<wgt id='scales0.51.0'>  0.463874977E+02 </wgt>
<wgt id='scales1.00.5'>  0.454761438E+02 </wgt>
<wgt id='scales1.02.0'>  0.349797908E+02 </wgt>
<wgt id='scales2.01.0'>  0.343673325E+02 </wgt>
<wgt id='scales2.02.0'>  0.302842888E+02 </wgt>
</rwgt>
<scales uborns=' 0.114187697E+04'> </scales>
</event>
<event>
      5  10001  5.97204E+01  6.75592E+00  7.29735E-03  2.17755E-01
      21    -1     0     0   511   514  0.000000000E+00  0.000000000E+00  1.887715319E+03  1.887715319E+03  0.000000000E+00  0.00000E+00  9.000E+00
      -3    -1     0     0     0   513  0.000000000E+00  0.000000000E+00 -9.564785703E+02  9.564785703E+02  0.000000000E+00  0.00000E+00  9.000E+00
      -3     1     1     2     0   514  1.039405827E+03  2.262420339E+02 -3.381309624E+02  1.116191059E+03  2.157918644E-05  0.00000E+00  9.000E+00
      21     1     1     2   511   513 -1.035489972E+03 -2.207367112E+02  1.311390542E+03  1.685440397E+03  2.157918644E-05  0.00000E+00  9.000E+00
      22     1     1     2     0     0 -3.915854666E+00 -5.505322739E+00 -4.202283058E+01  4.256243398E+01  6.743495762E-07  0.00000E+00  9.000E+00
#rwgt            1         198   1.6193095184799831E-004        6024     4456584           0
<rwgt>
<wgt id='central'>  0.597204215E+02 </wgt>
<wgt id='sudakovwgt'>  0.292448477E-01 </wgt>
<wgt id='scales0.50.5'>  0.806122927E+02 </wgt>
<wgt id='scales0.51.0'>  0.698813637E+02 </wgt>
<wgt id='scales1.00.5'>  0.688910192E+02 </wgt>
<wgt id='scales1.02.0'>  0.522320890E+02 </wgt>
<wgt id='scales2.01.0'>  0.516446699E+02 </wgt>
<wgt id='scales2.02.0'>  0.451689706E+02 </wgt>
</rwgt>
<scales uborns=' 0.106124530E+04'> </scales>
</event>
<event>
      5  10001  4.04933E+00  3.04384E+01  7.29735E-03  1.52603E-01
       2    -1     0     0   513     0  0.000000000E+00  0.000000000E+00  2.471992201E+03  2.471992201E+03  0.000000000E+00  0.00000E+00  9.000E+00
       2    -1     0     0   512     0  0.000000000E+00  0.000000000E+00 -3.452564216E+03  3.452564216E+03  0.000000000E+00  0.00000E+00  9.000E+00
       2     1     1     2   512     0 -1.748075682E+03  1.699039873E+02  1.868117814E+03  2.564078806E+03  4.825252777E-05  0.00000E+00  9.000E+00
       2     1     1     2   513     0  1.746200962E+03 -1.395233545E+02 -2.789813954E+03  3.294198911E+03  5.285799584E-05  0.00000E+00  9.000E+00
      22     1     1     2     0     0  1.874719783E+00 -3.038063282E+01 -5.887587491E+01  6.627869998E+01  1.348699152E-06  0.00000E+00  9.000E+00
#rwgt            1          97   5.7969432248384918E-002        6024     4456935           0
<rwgt>
<wgt id='central'>  0.404932561E+01 </wgt>
<wgt id='sudakovwgt'>  0.159571720E+00 </wgt>
<wgt id='scales0.50.5'>  0.548865761E+01 </wgt>
<wgt id='scales0.51.0'>  0.469693273E+01 </wgt>
<wgt id='scales1.00.5'>  0.473189360E+01 </wgt>
<wgt id='scales1.02.0'>  0.350118014E+01 </wgt>
<wgt id='scales2.01.0'>  0.352813261E+01 </wgt>
<wgt id='scales2.02.0'>  0.305053623E+01 </wgt>
</rwgt>
<scales uborns=' 0.175397455E+04'> </scales>
</event>
<event>
      5  10001  1.93020E+01  2.23005E+01  7.29735E-03  1.62560E-01
      21    -1     0     0   511   512  0.000000000E+00  0.000000000E+00  4.316099639E+02  4.316099639E+02  0.000000000E+00  0.00000E+00  9.000E+00
       2    -1     0     0   514     0  0.000000000E+00  0.000000000E+00 -4.408245957E+03  4.408245957E+03  0.000000000E+00  0.00000E+00  9.000E+00
       2     1     1     2   511     0  1.191170075E+03  4.993662597E+02 -2.278220949E+03  2.618882109E+03  4.315837288E-05  0.00000E+00  9.000E+00
      21     1     1     2   514   512 -1.213390633E+03 -5.012523443E+02 -1.390840795E+03  1.912592183E+03  4.577636719E-05  0.00000E+00  9.000E+00
      22     1     1     2     0     0  2.222055725E+01  1.886084636E+00 -3.075742485E+02  3.083816286E+02  5.394796609E-06  0.00000E+00  9.000E+00
#rwgt            1         187   2.3987895605137966E-002        6024     4500082           0
<rwgt>
<wgt id='central'>  0.193019827E+02 </wgt>
<wgt id='sudakovwgt'>  0.525292094E-01 </wgt>
<wgt id='scales0.50.5'>  0.263526834E+02 </wgt>
<wgt id='scales0.51.0'>  0.225027850E+02 </wgt>
<wgt id='scales1.00.5'>  0.226042907E+02 </wgt>
<wgt id='scales1.02.0'>  0.166524475E+02 </wgt>
<wgt id='scales2.01.0'>  0.167446067E+02 </wgt>
<wgt id='scales2.02.0'>  0.144461032E+02 </wgt>
</rwgt>
<scales uborns=' 0.130218250E+04'> </scales>
</event>
<event>
      5  10001  1.93495E+07  1.32576E+01  7.29735E-03  1.82589E-01
      21    -1     0     0   513   515  0.000000000E+00  0.000000000E+00  2.052226527E+02  2.052226527E+02  0.000000000E+00  0.00000E+00  9.000E+00
       1    -1     0     0   511     0  0.000000000E+00  0.000000000E+00 -2.710442150E+02  2.710442150E+02  0.000000000E+00  0.00000E+00  9.000E+00
      22     1     1     2     0     0  6.892134777E+00 -2.057601110E+00 -1.238728848E+01  1.432411114E+01  2.384185791E-07  0.00000E+00  9.000E+00
      21     1     1     2   511   515 -1.165095762E+02  4.193051592E+01  1.697510391E+02  2.101144088E+02  1.907348633E-06  0.00000E+00  9.000E+00
       1     1     1     2   513     0  1.096174414E+02 -3.987291481E+01 -2.231853130E+02  2.518283477E+02  4.672030912E-06  0.00000E+00  9.000E+00
#rwgt            1         186   2.6142730143465256E-003        6024     4501140           0
<rwgt>
<wgt id='central'>  0.193495219E+08 </wgt>
<wgt id='sudakovwgt'>  0.472270167E-03 </wgt>
<wgt id='scales0.50.5'>  0.243341281E+08 </wgt>
<wgt id='scales0.51.0'>  0.238924784E+08 </wgt>
<wgt id='scales1.00.5'>  0.197071732E+08 </wgt>
<wgt id='scales1.02.0'>  0.188935313E+08 </wgt>
<wgt id='scales2.01.0'>  0.160042910E+08 </wgt>
<wgt id='scales2.02.0'>  0.156271518E+08 </wgt>
</rwgt>
<scales uborns=' 0.123830659E+03'> </scales>
</event>
<event>
      5  10001  4.04789E+03  2.34734E+00  7.29735E-03  3.33454E-01
      21    -1     0     0   512   514  0.000000000E+00  0.000000000E+00  1.485015551E+02  1.485015551E+02  0.000000000E+00  0.00000E+00  9.000E+00
       2    -1     0     0   513     0  0.000000000E+00  0.000000000E+00 -4.116908704E+03  4.116908704E+03  0.000000000E+00  0.00000E+00  9.000E+00
       2     1     1     2   512     0 -3.586063325E+02  3.649393509E+02 -2.335427608E+03  2.390816042E+03  5.285799584E-05  0.00000E+00  9.000E+00
      21     1     1     2   513   514  3.608208862E+02 -3.641610520E+02 -4.230503734E+02  6.646627733E+02  1.618438983E-05  0.00000E+00  9.000E+00
      22     1     1     2     0     0 -2.214553745E+00 -7.782989470E-01 -1.209929167E+03  1.209931444E+03  2.157918644E-05  0.00000E+00  9.000E+00
#rwgt            1         187   2.1484662706517981E-002        6024     4501399           0
<rwgt>
<wgt id='central'>  0.404788742E+04 </wgt>
<wgt id='sudakovwgt'>  0.687362985E-01 </wgt>
<wgt id='scales0.50.5'>  0.531683486E+04 </wgt>
<wgt id='scales0.51.0'>  0.480715161E+04 </wgt>
<wgt id='scales1.00.5'>  0.447707174E+04 </wgt>
<wgt id='scales1.02.0'>  0.367689023E+04 </wgt>
<wgt id='scales2.01.0'>  0.345703633E+04 </wgt>
<wgt id='scales2.02.0'>  0.314018985E+04 </wgt>
</rwgt>
<scales uborns=' 0.512143122E+03'> </scales>
</event>
<event>
      5  10001  2.45792E+03  1.41801E+02  7.29735E-03  1.17369E-01
      21    -1     0     0   511   515  0.000000000E+00  0.000000000E+00  4.453853244E+02  4.453853244E+02  0.000000000E+00  0.00000E+00  9.000E+00
       2    -1     0     0   512     0  0.000000000E+00  0.000000000E+00 -7.554580375E+02  7.554580375E+02  0.000000000E+00  0.00000E+00  9.000E+00
       2     1     1     2   511     0  3.982550176E+02 -2.144178878E+02  4.900507122E+01  4.549544886E+02  1.228723405E-05  0.00000E+00  9.000E+00
      21     1     1     2   512   515 -4.002359757E+02  3.413678581E+02 -3.032509119E+02  6.071918695E+02  1.009274029E-05  0.00000E+00  9.000E+00
      22     1     1     2     0     0  1.980958104E+00 -1.269499704E+02 -5.582687241E+01  1.386970038E+02  3.932099939E-06  0.00000E+00  9.000E+00
#rwgt            1         187   1.7561924221215046E-003        6024     4504186           0
<rwgt>
<wgt id='central'>  0.245791694E+04 </wgt>
<wgt id='sudakovwgt'>  0.205992969E-02 </wgt>
<wgt id='scales0.50.5'>  0.313838461E+04 </wgt>
<wgt id='scales0.51.0'>  0.291352040E+04 </wgt>
<wgt id='scales1.00.5'>  0.264762118E+04 </wgt>
<wgt id='scales1.02.0'>  0.228997476E+04 </wgt>
<wgt id='scales2.01.0'>  0.210243234E+04 </wgt>
<wgt id='scales2.02.0'>  0.195877693E+04 </wgt>
</rwgt>
<scales uborns=' 0.557373775E+03'> </scales>
</event>
<event>
      5  10001  7.94594E+03  2.21242E+01  7.29735E-03  1.62831E-01
       2    -1     0     0   513     0  0.000000000E+00  0.000000000E+00  1.026008470E+03  1.026008470E+03  0.000000000E+00  0.00000E+00  9.000E+00
      -1    -1     0     0     0   513  0.000000000E+00  0.000000000E+00 -2.037915395E+02  2.037915395E+02  0.000000000E+00  0.00000E+00  9.000E+00
       2     1     1     2   512     0 -4.478498934E+02 -7.585033548E+01  3.855026101E+02  5.957642678E+02  0.000000000E+00  0.00000E+00  9.000E+00
      -1     1     1     2     0   512  4.151638340E+02  5.371724647E+01  3.831330165E+02  5.674834447E+02  0.000000000E+00  0.00000E+00  9.000E+00
      22     1     1     2     0     0  3.268605938E+01  2.213308901E+01  5.358130399E+01  6.655229706E+01  9.536743164E-07  0.00000E+00  9.000E+00
#rwgt            1         145   1.8669933751586464E-004        6024     4504640           0
<rwgt>
<wgt id='central'>  0.794593591E+04 </wgt>
<wgt id='sudakovwgt'>  0.266659973E-02 </wgt>
<wgt id='scales0.50.5'>  0.974362202E+04 </wgt>
<wgt id='scales0.51.0'>  0.946070845E+04 </wgt>
<wgt id='scales1.00.5'>  0.818355584E+04 </wgt>
<wgt id='scales1.02.0'>  0.771056857E+04 </wgt>
<wgt id='scales2.01.0'>  0.677147130E+04 </wgt>
<wgt id='scales2.02.0'>  0.657088951E+04 </wgt>
</rwgt>
<scales uborns=' 0.456937041E+03'> </scales>
</event>
<event>
      5  10001  5.06588E+01  4.38353E+01  7.29735E-03  1.42416E-01
      21    -1     0     0   511   514  0.000000000E+00  0.000000000E+00  7.484650885E+02  7.484650885E+02  0.000000000E+00  0.00000E+00  9.000E+00
       2    -1     0     0   512     0  0.000000000E+00  0.000000000E+00 -4.569350282E+03  4.569350282E+03  0.000000000E+00  0.00000E+00  9.000E+00
       2     1     1     2   511     0  9.677605849E+02  4.590262412E+02 -3.713922034E+03  3.865292035E+03  8.631674575E-05  0.00000E+00  9.000E+00
      21     1     1     2   512   514 -1.006656894E+03 -4.792403978E+02  2.083199424E+02  1.134207503E+03  1.348699152E-05  0.00000E+00  9.000E+00
      22     1     1     2     0     0  3.889630922E+01  2.021415664E+01 -3.152831016E+02  3.183158324E+02  5.394796609E-06  0.00000E+00  9.000E+00
#rwgt            1         187   8.8346626068792414E-003        6024     4605905           0
<rwgt>
<wgt id='central'>  0.506588133E+02 </wgt>
<wgt id='sudakovwgt'>  0.336670014E-01 </wgt>
<wgt id='scales0.50.5'>  0.712122081E+02 </wgt>
<wgt id='scales0.51.0'>  0.592458588E+02 </wgt>
<wgt id='scales1.00.5'>  0.608907539E+02 </wgt>
<wgt id='scales1.02.0'>  0.426889525E+02 </wgt>
<wgt id='scales2.01.0'>  0.438286858E+02 </wgt>
<wgt id='scales2.02.0'>  0.369333795E+02 </wgt>
</rwgt>
<scales uborns=' 0.109292576E+04'> </scales>
</event>
<event>
      5  10001  4.06916E+02  3.45896E+02  7.29735E-03  1.03621E-01
       2    -1     0     0   511     0  0.000000000E+00  0.000000000E+00  1.622266303E+03  1.622266303E+03  0.000000000E+00  0.00000E+00  9.000E+00
       2    -1     0     0   513     0  0.000000000E+00  0.000000000E+00 -1.694833030E+03  1.694833030E+03  0.000000000E+00  0.00000E+00  9.000E+00
       2     1     1     2   513     0 -1.510569079E+01 -7.497370854E+02  1.422827674E+03  1.608344637E+03  2.642899792E-05  0.00000E+00  9.000E+00
      22     1     1     2     0     0 -3.018618131E+01  2.265467428E+02 -8.311252438E+02  8.619766836E+02  0.000000000E+00  0.00000E+00  9.000E+00
       2     1     1     2   511     0  4.529187210E+01  5.231903427E+02 -6.642691580E+02  8.467780126E+02  0.000000000E+00  0.00000E+00  9.000E+00
#rwgt            1          97   4.4976980016713580E-003        6024     4606764           0
<rwgt>
<wgt id='central'>  0.406915568E+03 </wgt>
<wgt id='sudakovwgt'>  0.564885719E-03 </wgt>
<wgt id='scales0.50.5'>  0.530190470E+03 </wgt>
<wgt id='scales0.51.0'>  0.479247013E+03 </wgt>
<wgt id='scales1.00.5'>  0.450170745E+03 </wgt>
<wgt id='scales1.02.0'>  0.370241211E+03 </wgt>
<wgt id='scales2.01.0'>  0.349958537E+03 </wgt>
<wgt id='scales2.02.0'>  0.318417247E+03 </wgt>
</rwgt>
<scales uborns=' 0.758252611E+03'> </scales>
</event>
<event>
      4  10001  6.44227E+02  8.94427E-01  7.29735E-03  7.52613E-01
       2    -1     0     0   514     0  0.000000000E+00  0.000000000E+00  1.682295448E+03  1.682295448E+03  0.000000000E+00  0.00000E+00  9.000E+00
      21    -1     0     0   512   514  0.000000000E+00  0.000000000E+00 -3.272760717E+02  3.272760717E+02  0.000000000E+00  0.00000E+00  9.000E+00
       2     1     1     2   511     0 -3.842774441E+02 -5.857750469E+02  1.008579439E+03  1.228020376E+03  1.525878906E-05  0.00000E+00  9.000E+00
      21     1     1     2   512   511  3.842774441E+02  5.857750469E+02  3.464399370E+02  7.815511433E+02  1.572839976E-05  0.00000E+00  9.000E+00
#rwgt            1         182   1.0029449886358654E-002        6024     4612323           0
<rwgt>
<wgt id='central'>  0.644226876E+03 </wgt>
<wgt id='sudakovwgt'>  0.232899765E+02 </wgt>
<wgt id='scales0.50.5'>  0.833869723E+03 </wgt>
<wgt id='scales0.51.0'>  0.759960994E+03 </wgt>
<wgt id='scales1.00.5'>  0.706880214E+03 </wgt>
<wgt id='scales1.02.0'>  0.589997231E+03 </wgt>
<wgt id='scales2.01.0'>  0.553300235E+03 </wgt>
<wgt id='scales2.02.0'>  0.506724503E+03 </wgt>
</rwgt>
<scales uborns=' 0.700572309E+03'> </scales>
</event>
<event>
      5  10001  4.80777E+00  8.98795E+01  7.29735E-03  1.25948E-01
       2    -1     0     0   511     0  0.000000000E+00  0.000000000E+00  7.865045942E+02  7.865045942E+02  0.000000000E+00  0.00000E+00  9.000E+00
       2    -1     0     0   513     0  0.000000000E+00  0.000000000E+00 -4.444710885E+03  4.444710885E+03  0.000000000E+00  0.00000E+00  9.000E+00
       2     1     1     2   513     0  1.257200844E+03 -1.132466379E+03 -7.250365238E+02  1.840845464E+03  2.642899792E-05  0.00000E+00  9.000E+00
       2     1     1     2   511     0 -1.028660434E+03  8.339519528E+02 -2.266793055E+03  2.625255969E+03  3.051757812E-05  0.00000E+00  9.000E+00
      22     1     1     2     0     0 -2.285404099E+02  2.985144259E+02 -6.663767117E+02  7.651140460E+02  1.321449896E-05  0.00000E+00  9.000E+00
#rwgt            1          97   3.8302585231207798E-003        6024     4632059           0
<rwgt>
<wgt id='central'>  0.480776546E+01 </wgt>
<wgt id='sudakovwgt'>  0.649069382E-02 </wgt>
<wgt id='scales0.50.5'>  0.640079830E+01 </wgt>
<wgt id='scales0.51.0'>  0.557979535E+01 </wgt>
<wgt id='scales1.00.5'>  0.551517826E+01 </wgt>
<wgt id='scales1.02.0'>  0.422894227E+01 </wgt>
<wgt id='scales2.01.0'>  0.418693448E+01 </wgt>
<wgt id='scales2.02.0'>  0.368285176E+01 </wgt>
</rwgt>
<scales uborns=' 0.169545615E+04'> </scales>
</event>
<event>
      5  10001  4.54911E+00  3.47626E+01  7.29735E-03  1.48724E-01
       2    -1     0     0   513     0  0.000000000E+00  0.000000000E+00  1.569359801E+03  1.569359801E+03  0.000000000E+00  0.00000E+00  9.000E+00
      21    -1     0     0   512   514  0.000000000E+00  0.000000000E+00 -1.956746261E+03  1.956746261E+03  0.000000000E+00  0.00000E+00  9.000E+00
       2     1     1     2   512     0 -1.184656464E+03  1.216557704E+03 -8.252054162E+01  1.700068594E+03  2.438871737E-05  0.00000E+00  9.000E+00
      21     1     1     2   513   514  1.197340839E+03 -1.248923454E+03 -3.538533349E+02  1.765969156E+03  3.927471215E-05  0.00000E+00  9.000E+00
      22     1     1     2     0     0 -1.268437528E+01  3.236574930E+01  4.898741669E+01  6.006831193E+01  6.743495762E-07  0.00000E+00  9.000E+00
#rwgt            1         182   2.6308402587667326E-003        6024     4651115           0
<rwgt>
<wgt id='central'>  0.454911127E+01 </wgt>
<wgt id='sudakovwgt'>  0.735224732E-01 </wgt>
<wgt id='scales0.50.5'>  0.614837987E+01 </wgt>
<wgt id='scales0.51.0'>  0.527864791E+01 </wgt>
<wgt id='scales1.00.5'>  0.529864026E+01 </wgt>
<wgt id='scales1.02.0'>  0.394684394E+01 </wgt>
<wgt id='scales2.01.0'>  0.396228985E+01 </wgt>
<wgt id='scales2.02.0'>  0.343771412E+01 </wgt>
</rwgt>
<scales uborns=' 0.171402194E+04'> </scales>
</event>
<event>
      5  10001  1.76917E+05  9.26426E+01  7.29735E-03  1.25339E-01
       2    -1     0     0   512     0  0.000000000E+00  0.000000000E+00  1.607676232E+03  1.607676232E+03  0.000000000E+00  0.00000E+00  9.000E+00
      21    -1     0     0   511   515  0.000000000E+00  0.000000000E+00 -7.195300144E+01  7.195300144E+01  0.000000000E+00  0.00000E+00  9.000E+00
      22     1     1     2     0     0  8.291481877E+01  1.127043851E+02  5.693501561E+02  5.862906667E+02  7.629394531E-06  0.00000E+00  9.000E+00
      21     1     1     2   512   515 -2.138766421E+02 -1.595589547E+02  2.570574847E+02  3.705142757E+02  0.000000000E+00  0.00000E+00  9.000E+00
       2     1     1     2   511     0  1.309618234E+02  4.685456953E+01  7.093155898E+02  7.228242911E+02  1.078959322E-05  0.00000E+00  9.000E+00
#rwgt            1         182   1.4862985585093835E-002        6024     4654315           0
<rwgt>
<wgt id='central'>  0.176917351E+06 </wgt>
<wgt id='sudakovwgt'>  0.449648018E-03 </wgt>
<wgt id='scales0.50.5'>  0.221554525E+06 </wgt>
<wgt id='scales0.51.0'>  0.213371988E+06 </wgt>
<wgt id='scales1.00.5'>  0.183701536E+06 </wgt>
<wgt id='scales1.02.0'>  0.169937493E+06 </wgt>
<wgt id='scales2.01.0'>  0.149164033E+06 </wgt>
<wgt id='scales2.02.0'>  0.143279401E+06 </wgt>
</rwgt>
<scales uborns=' 0.271289742E+03'> </scales>
</event>
<event>
      5  10001  1.15697E+04  2.22040E+02  7.29735E-03  1.10020E-01
       1    -1     0     0   512     0  0.000000000E+00  0.000000000E+00  4.977902504E+02  4.977902504E+02  0.000000000E+00  0.00000E+00  9.000E+00
      -4    -1     0     0     0   512  0.000000000E+00  0.000000000E+00 -6.675969974E+02  6.675969974E+02  0.000000000E+00  0.00000E+00  9.000E+00
       1     1     1     2   511     0 -1.187988424E+02  5.403026786E+02  7.556081539E+01  5.583454005E+02  7.387129490E-06  0.00000E+00  9.000E+00
      -4     1     1     2     0   511  6.635253157E+01 -3.245460004E+02 -1.218520856E+02  3.529599065E+02  8.740569487E-06  0.00000E+00  9.000E+00
      22     1     1     2     0     0  5.244631081E+01 -2.157566781E+02 -1.235154768E+02  2.540819409E+02  1.907348633E-06  0.00000E+00  9.000E+00
#rwgt            1         143   2.8473976782150135E-005        6024     4654876           0
<rwgt>
<wgt id='central'>  0.115697334E+05 </wgt>
<wgt id='sudakovwgt'>  0.212741606E-01 </wgt>
<wgt id='scales0.50.5'>  0.136445630E+05 </wgt>
<wgt id='scales0.51.0'>  0.137955038E+05 </wgt>
<wgt id='scales1.00.5'>  0.114431124E+05 </wgt>
<wgt id='scales1.02.0'>  0.116010629E+05 </wgt>
<wgt id='scales2.01.0'>  0.984753174E+04 </wgt>
<wgt id='scales2.02.0'>  0.987422625E+04 </wgt>
</rwgt>
<scales uborns=' 0.428870985E+03'> </scales>
</event>
<event>
      5  10001  3.06641E+03  2.30080E+02  7.29735E-03  1.09477E-01
      -2    -1     0     0     0   513  0.000000000E+00  0.000000000E+00  6.162964178E+02  6.162964178E+02  0.000000000E+00  0.00000E+00  9.000E+00
       2    -1     0     0   513     0  0.000000000E+00  0.000000000E+00 -2.922752805E+03  2.922752805E+03  0.000000000E+00  0.00000E+00  9.000E+00
      22     1     1     2     0     0  2.169008792E+02 -2.192379891E+02 -2.068594280E+03  2.091457287E+03  4.315837288E-05  0.00000E+00  9.000E+00
      -2     1     1     2     0   512 -4.867133326E+02  2.016771614E+02  4.598609517E+02  6.993108326E+02  0.000000000E+00  0.00000E+00  9.000E+00
       2     1     1     2   512     0  2.698124535E+02  1.756082765E+01 -6.977230590E+02  7.482811034E+02  7.629394531E-06  0.00000E+00  9.000E+00
#rwgt            1          72   1.2244421025686247E-003        6024     4655057           0
<rwgt>
<wgt id='central'>  0.306640756E+04 </wgt>
<wgt id='sudakovwgt'>  0.903145462E-03 </wgt>
<wgt id='scales0.50.5'>  0.409285122E+04 </wgt>
<wgt id='scales0.51.0'>  0.363778653E+04 </wgt>
<wgt id='scales1.00.5'>  0.344999901E+04 </wgt>
<wgt id='scales1.02.0'>  0.274682966E+04 </wgt>
<wgt id='scales2.01.0'>  0.262110786E+04 </wgt>
<wgt id='scales2.02.0'>  0.234793678E+04 </wgt>
</rwgt>
<scales uborns=' 0.536829789E+03'> </scales>
</event>
<event>
      5  10001  7.23162E-01  3.93838E+03  7.29735E-03  7.86641E-02
       2    -1     0     0   511     0  0.000000000E+00  0.000000000E+00  3.676810308E+03  3.676810308E+03  0.000000000E+00  0.00000E+00  9.000E+00
       2    -1     0     0   512     0  0.000000000E+00  0.000000000E+00 -1.746942035E+03  1.746942035E+03  0.000000000E+00  0.00000E+00  9.000E+00
       2     1     1     2   511     0  2.014985385E+00  9.533199574E+02  3.428979871E+02  1.013115014E+03  3.578503235E-05  0.00000E+00  9.000E+00
      22     1     1     2     0     0  1.746018270E+02 -5.829428831E+02  2.937127353E+03  2.999504175E+03  6.103515625E-05  0.00000E+00  9.000E+00
       2     1     1     2   512     0 -1.766168124E+02 -3.703770743E+02 -1.350157068E+03  1.411133156E+03  4.315837288E-05  0.00000E+00  9.000E+00
#rwgt            1          97   4.9960584949157422E-002        6024     4657033           0
<rwgt>
<wgt id='central'>  0.723162112E+00 </wgt>
<wgt id='sudakovwgt'>  0.422934457E-03 </wgt>
<wgt id='scales0.50.5'>  0.958022782E+00 </wgt>
<wgt id='scales0.51.0'>  0.833955844E+00 </wgt>
<wgt id='scales1.00.5'>  0.830746227E+00 </wgt>
<wgt id='scales1.02.0'>  0.635099912E+00 </wgt>
<wgt id='scales2.01.0'>  0.633248281E+00 </wgt>
<wgt id='scales2.02.0'>  0.556135316E+00 </wgt>
</rwgt>
<scales uborns=' 0.253390464E+04'> </scales>
</event>
<event>
      5  10001  1.74141E+03  7.04587E+00  7.29735E-03  2.15153E-01
      21    -1     0     0   513   514  0.000000000E+00  0.000000000E+00  1.589946275E+02  1.589946275E+02  0.000000000E+00  0.00000E+00  9.000E+00
       2    -1     0     0   514     0  0.000000000E+00  0.000000000E+00 -3.837617998E+03  3.837617998E+03  0.000000000E+00  0.00000E+00  9.000E+00
       2     1     1     2   512     0 -1.353886580E+01  2.784462067E+02 -1.467380148E+03  1.493626490E+03  2.157918644E-05  0.00000E+00  9.000E+00
      21     1     1     2   513   512  3.138467171E+01 -5.901789189E+02 -5.327190667E+02  7.956668637E+02  1.525878906E-05  0.00000E+00  9.000E+00
      22     1     1     2     0     0 -1.784580590E+01  3.117327122E+02 -1.678524156E+03  1.707319273E+03  2.157918644E-05  0.00000E+00  9.000E+00
#rwgt            1         187   3.8938917161914430E-002        6024     4657153           0
<rwgt>
<wgt id='central'>  0.174141157E+04 </wgt>
<wgt id='sudakovwgt'>  0.649240604E-01 </wgt>
<wgt id='scales0.50.5'>  0.234245783E+04 </wgt>
<wgt id='scales0.51.0'>  0.206158674E+04 </wgt>
<wgt id='scales1.00.5'>  0.197866014E+04 </wgt>
<wgt id='scales1.02.0'>  0.154348404E+04 </wgt>
<wgt id='scales2.01.0'>  0.149113730E+04 </wgt>
<wgt id='scales2.02.0'>  0.132165695E+04 </wgt>
</rwgt>
<scales uborns=' 0.591023409E+03'> </scales>
</event>
<event>
      5  10001  2.24515E+04  4.97842E+02  7.29735E-03  9.89053E-02
      21    -1     0     0   511   514  0.000000000E+00  0.000000000E+00  8.704899455E+02  8.704899455E+02  0.000000000E+00  0.00000E+00  9.000E+00
       2    -1     0     0   512     0  0.000000000E+00  0.000000000E+00 -2.127389151E+03  2.127389151E+03  0.000000000E+00  0.00000E+00  9.000E+00
       2     1     1     2   511     0  8.275266290E+01 -9.841925622E+01 -1.089113136E+03  1.096677608E+03  0.000000000E+00  0.00000E+00  9.000E+00
      21     1     1     2   512   514  3.177205189E+02  1.909264712E+02  7.824898323E+02  8.658461660E+02  1.868812365E-05  0.00000E+00  9.000E+00
      22     1     1     2     0     0 -4.004731818E+02 -9.250721503E+01 -9.502759015E+02  1.035355322E+03  1.078959322E-05  0.00000E+00  9.000E+00
#rwgt            1         187   1.1787882878402753E-002        6024     4658928           0
<rwgt>
<wgt id='central'>  0.224514869E+05 </wgt>
<wgt id='sudakovwgt'>  0.563204042E-01 </wgt>
<wgt id='scales0.50.5'>  0.311894383E+05 </wgt>
<wgt id='scales0.51.0'>  0.268416976E+05 </wgt>
<wgt id='scales1.00.5'>  0.260881292E+05 </wgt>
<wgt id='scales1.02.0'>  0.195347955E+05 </wgt>
<wgt id='scales2.01.0'>  0.190674369E+05 </wgt>
<wgt id='scales2.02.0'>  0.165903605E+05 </wgt>
</rwgt>
<scales uborns=' 0.383570615E+03'> </scales>
</event>
<event>
      5  10001  7.85500E+03  1.40514E+01  7.29735E-03  1.80099E-01
       2    -1     0     0   515     0  0.000000000E+00  0.000000000E+00  3.442380585E+02  3.442380585E+02  0.000000000E+00  0.00000E+00  9.000E+00
      21    -1     0     0   513   511  0.000000000E+00  0.000000000E+00 -1.443220919E+03  1.443220919E+03  0.000000000E+00  0.00000E+00  9.000E+00
       2     1     1     2   513     0 -6.572851805E+01 -4.463445100E+02 -4.659459307E+02  6.485747991E+02  1.321449896E-05  0.00000E+00  9.000E+00
      21     1     1     2   515   511  6.356406908E+01  4.602281902E+02 -8.247772108E+02  9.466297193E+02  1.078959322E-05  0.00000E+00  9.000E+00
      22     1     1     2     0     0  2.164448969E+00 -1.388368018E+01  1.917402814E+02  1.922544588E+02  3.814697266E-06  0.00000E+00  9.000E+00
#rwgt            1         182   6.2417805283260328E-004        6024     4659540           0
<rwgt>
<wgt id='central'>  0.785500334E+04 </wgt>
<wgt id='sudakovwgt'>  0.614920149E-01 </wgt>
<wgt id='scales0.50.5'>  0.102581022E+05 </wgt>
<wgt id='scales0.51.0'>  0.935201528E+04 </wgt>
<wgt id='scales1.00.5'>  0.861604592E+04 </wgt>
<wgt id='scales1.02.0'>  0.720102330E+04 </wgt>
<wgt id='scales2.01.0'>  0.669422250E+04 </wgt>
<wgt id='scales2.02.0'>  0.613688762E+04 </wgt>
</rwgt>
<scales uborns=' 0.457825915E+03'> </scales>
</event>
<event>
      5  10001  9.05207E+02  3.51536E+01  7.29735E-03  1.48407E-01
       2    -1     0     0   512     0  0.000000000E+00  0.000000000E+00  1.279500614E+03  1.279500614E+03  0.000000000E+00  0.00000E+00  9.000E+00
       2    -1     0     0   513     0  0.000000000E+00  0.000000000E+00 -1.012916187E+03  1.012916187E+03  0.000000000E+00  0.00000E+00  9.000E+00
       2     1     1     2   512     0 -1.900384644E+02  6.147415268E+02 -7.882824313E+02  1.017551450E+03  1.525878906E-05  0.00000E+00  9.000E+00
       2     1     1     2   513     0  1.975966251E+02 -6.490730372E+02  9.775788028E+02  1.189958213E+03  1.868812365E-05  0.00000E+00  9.000E+00
      22     1     1     2     0     0 -7.558160767E+00  3.433151036E+01  7.728805594E+01  8.490713744E+01  1.348699152E-06  0.00000E+00  9.000E+00
#rwgt            1          97   2.5060912502703481E-003        6024     4662595           0
<rwgt>
<wgt id='central'>  0.905207205E+03 </wgt>
<wgt id='sudakovwgt'>  0.663457533E-01 </wgt>
<wgt id='scales0.50.5'>  0.114367464E+04 </wgt>
<wgt id='scales0.51.0'>  0.106911327E+04 </wgt>
<wgt id='scales1.00.5'>  0.968337333E+03 </wgt>
<wgt id='scales1.02.0'>  0.849397627E+03 </wgt>
<wgt id='scales2.01.0'>  0.776654669E+03 </wgt>
<wgt id='scales2.02.0'>  0.728771025E+03 </wgt>
</rwgt>
<scales uborns=' 0.660879092E+03'> </scales>
</event>
<event>
      5  10001  4.44530E+00  1.46443E+02  7.29735E-03  1.16808E-01
      21    -1     0     0   514   513  0.000000000E+00  0.000000000E+00  1.684126712E+03  1.684126712E+03  0.000000000E+00  0.00000E+00  9.000E+00
       2    -1     0     0   513     0  0.000000000E+00  0.000000000E+00 -1.916517531E+03  1.916517531E+03  0.000000000E+00  0.00000E+00  9.000E+00
       2     1     1     2   511     0  1.682478692E+03 -2.188836062E+02 -5.828470869E+02  1.793977510E+03  2.954851796E-05  0.00000E+00  9.000E+00
      21     1     1     2   514   511 -1.641051135E+03  2.971030592E+02  3.851034561E+02  1.711614363E+03  3.496227795E-05  0.00000E+00  9.000E+00
      22     1     1     2     0     0 -4.142755667E+01 -7.821945300E+01 -3.464718833E+01  9.505236945E+01  2.286830675E-06  0.00000E+00  9.000E+00
#rwgt            1         187   5.5263814003391355E-003        6024     4688730           0
<rwgt>
<wgt id='central'>  0.444529547E+01 </wgt>
<wgt id='sudakovwgt'>  0.605744268E-02 </wgt>
<wgt id='scales0.50.5'>  0.601011796E+01 </wgt>
<wgt id='scales0.51.0'>  0.515780136E+01 </wgt>
<wgt id='scales1.00.5'>  0.517987715E+01 </wgt>
<wgt id='scales1.02.0'>  0.385490524E+01 </wgt>
<wgt id='scales2.01.0'>  0.387212175E+01 </wgt>
<wgt id='scales2.02.0'>  0.335785266E+01 </wgt>
</rwgt>
<scales uborns=' 0.172185108E+04'> </scales>
</event>
<event>
      4  10001  1.77585E+06  8.94427E-01  7.29735E-03  7.51720E-01
       1    -1     0     0   512     0  0.000000000E+00  0.000000000E+00  5.164043627E+02  5.164043627E+02  0.000000000E+00  0.00000E+00  9.000E+00
      -3    -1     0     0     0   512  0.000000000E+00  0.000000000E+00 -2.308509045E+02  2.308509045E+02  0.000000000E+00  0.00000E+00  9.000E+00
       1     1     1     2   513     0  9.515148407E+00 -1.842385413E+02  4.585984960E+02  4.943146353E+02  5.394796609E-06  0.00000E+00  9.000E+00
      -3     1     1     2     0   513 -9.515148407E+00  1.842385413E+02 -1.730450378E+02  2.529406319E+02  3.303624740E-06  0.00000E+00  9.000E+00
#rwgt            1         142   7.6652392750647106E-005        6024     4689656           0
<rwgt>
<wgt id='central'>  0.177585015E+07 </wgt>
<wgt id='sudakovwgt'>  0.189258972E+01 </wgt>
<wgt id='scales0.50.5'>  0.217163493E+07 </wgt>
<wgt id='scales0.51.0'>  0.216515541E+07 </wgt>
<wgt id='scales1.00.5'>  0.178116447E+07 </wgt>
<wgt id='scales1.02.0'>  0.176082198E+07 </wgt>
<wgt id='scales2.01.0'>  0.148399944E+07 </wgt>
<wgt id='scales2.02.0'>  0.147144119E+07 </wgt>
</rwgt>
<scales uborns=' 0.184484086E+03'> </scales>
</event>
<event>
      4  10001  3.83071E+03  8.94427E-01  7.29735E-03  7.48240E-01
      21    -1     0     0   511   514  0.000000000E+00  0.000000000E+00  5.941486038E+02  5.941486038E+02  0.000000000E+00  0.00000E+00  9.000E+00
       3    -1     0     0   513     0  0.000000000E+00  0.000000000E+00 -5.117900932E+02  5.117900932E+02  0.000000000E+00  0.00000E+00  9.000E+00
       3     1     1     2   511     0 -3.837338773E+02 -3.463901817E+02  2.336551589E+02  5.673028995E+02  1.144409180E-05  0.00000E+00  9.000E+00
      21     1     1     2   513   514  3.837338773E+02  3.463901817E+02 -1.512966483E+02  5.386357975E+02  8.529922400E-06  0.00000E+00  9.000E+00
#rwgt            1         188   1.2149054892772077E-004        6024     4694918           0
<rwgt>
<wgt id='central'>  0.383070672E+04 </wgt>
<wgt id='sudakovwgt'>  0.207862739E+01 </wgt>
<wgt id='scales0.50.5'>  0.489227590E+04 </wgt>
<wgt id='scales0.51.0'>  0.454829067E+04 </wgt>
<wgt id='scales1.00.5'>  0.412042492E+04 </wgt>
<wgt id='scales1.02.0'>  0.356873701E+04 </wgt>
<wgt id='scales2.01.0'>  0.327212709E+04 </wgt>
<wgt id='scales2.02.0'>  0.304835423E+04 </wgt>
</rwgt>
<scales uborns=' 0.516950526E+03'> </scales>
</event>
<event>
      5  10001  1.75982E+04  9.64231E+00  7.29735E-03  1.97603E-01
       1    -1     0     0   511     0  0.000000000E+00  0.000000000E+00  2.880802098E+02  2.880802098E+02  0.000000000E+00  0.00000E+00  9.000E+00
       2    -1     0     0   512     0  0.000000000E+00  0.000000000E+00 -1.176165205E+03  1.176165205E+03  0.000000000E+00  0.00000E+00  9.000E+00
       1     1     1     2   512     0  3.907613446E+02 -8.337301771E+01  8.827882599E+01  4.091926681E+02  6.675720215E-06  0.00000E+00  9.000E+00
      22     1     1     2     0     0 -2.655657231E+02  6.290431773E+01 -6.734919715E+02  7.266866878E+02  1.078959322E-05  0.00000E+00  9.000E+00
       2     1     1     2   511     0 -1.251956215E+02  2.046869998E+01 -3.028718500E+02  3.283660592E+02  5.394796609E-06  0.00000E+00  9.000E+00
#rwgt            1          96   7.8197981035950988E-004        6024     4697053           0
<rwgt>
<wgt id='central'>  0.175981722E+05 </wgt>
<wgt id='sudakovwgt'>  0.313888560E-02 </wgt>
<wgt id='scales0.50.5'>  0.219136228E+05 </wgt>
<wgt id='scales0.51.0'>  0.210187498E+05 </wgt>
<wgt id='scales1.00.5'>  0.183474431E+05 </wgt>
<wgt id='scales1.02.0'>  0.168970084E+05 </wgt>
<wgt id='scales2.01.0'>  0.149578832E+05 </wgt>
<wgt id='scales2.02.0'>  0.143618937E+05 </wgt>
</rwgt>
<scales uborns=' 0.399616911E+03'> </scales>
</event>
<event>
      5  10001  1.73972E+01  7.77439E+00  7.29735E-03  2.09308E-01
      21    -1     0     0   512   514  0.000000000E+00  0.000000000E+00  1.888806936E+03  1.888806936E+03  0.000000000E+00  0.00000E+00  9.000E+00
       1    -1     0     0   514     0  0.000000000E+00  0.000000000E+00 -1.482434816E+03  1.482434816E+03  0.000000000E+00  0.00000E+00  9.000E+00
       1     1     1     2   513     0 -1.302291454E+03 -2.086297940E+02 -8.094427554E+02  1.547477624E+03  6.007391261E-05  0.00000E+00  9.000E+00
      21     1     1     2   512   513  1.310372798E+03  2.075903888E+02  1.228856984E+03  1.808386056E+03  2.642899792E-05  0.00000E+00  9.000E+00
      22     1     1     2     0     0 -8.081343875E+00  1.039405118E+00 -1.304210911E+01  1.537807179E+01  2.920019320E-07  0.00000E+00  9.000E+00
#rwgt            1         186   2.0367558992897220E-003        6024     4732313           0
<rwgt>
<wgt id='central'>  0.173971732E+02 </wgt>
<wgt id='sudakovwgt'>  0.450074757E-01 </wgt>
<wgt id='scales0.50.5'>  0.238793891E+02 </wgt>
<wgt id='scales0.51.0'>  0.202752760E+02 </wgt>
<wgt id='scales1.00.5'>  0.204897091E+02 </wgt>
<wgt id='scales1.02.0'>  0.149416431E+02 </wgt>
<wgt id='scales2.01.0'>  0.150965377E+02 </wgt>
<wgt id='scales2.02.0'>  0.129657116E+02 </wgt>
</rwgt>
<scales uborns=' 0.132740944E+04'> </scales>
</event>
<event>
      5  10001  1.40697E+02  5.21024E+02  7.29735E-03  9.83464E-02
       1    -1     0     0   513     0  0.000000000E+00  0.000000000E+00  5.907551477E+02  5.907551477E+02  0.000000000E+00  0.00000E+00  9.000E+00
       2    -1     0     0   511     0  0.000000000E+00  0.000000000E+00 -1.504510585E+03  1.504510585E+03  0.000000000E+00  0.00000E+00  9.000E+00
      22     1     1     2     0     0 -1.005326422E+02  4.310836217E+02 -9.927670134E+01  4.536471806E+02  6.743495762E-06  0.00000E+00  9.000E+00
       2     1     1     2   513     0 -2.801214663E+02 -8.067324056E+02 -6.760702865E+02  1.089199817E+03  2.412626389E-05  0.00000E+00  9.000E+00
       1     1     1     2   511     0  3.806541085E+02  3.756487839E+02 -1.384084492E+02  5.524187343E+02  1.279488360E-05  0.00000E+00  9.000E+00
#rwgt            1          96   1.2726520493931892E-003        6024     4732973           0
<rwgt>
<wgt id='central'>  0.140697045E+03 </wgt>
<wgt id='sudakovwgt'>  0.619902310E-03 </wgt>
<wgt id='scales0.50.5'>  0.176630532E+03 </wgt>
<wgt id='scales0.51.0'>  0.165106296E+03 </wgt>
<wgt id='scales1.00.5'>  0.150517494E+03 </wgt>
<wgt id='scales1.02.0'>  0.131992756E+03 </wgt>
<wgt id='scales2.01.0'>  0.121375953E+03 </wgt>
<wgt id='scales2.02.0'>  0.113867009E+03 </wgt>
</rwgt>
<scales uborns=' 0.912060639E+03'> </scales>
</event>
<event>
      5  10001  2.70905E+02  1.75802E+00  7.29735E-03  3.91400E-01
      -1    -1     0     0     0   511  0.000000000E+00  0.000000000E+00  2.869681555E+02  2.869681555E+02  0.000000000E+00  0.00000E+00  9.000E+00
       1    -1     0     0   511     0  0.000000000E+00  0.000000000E+00 -2.339830940E+03  2.339830940E+03  0.000000000E+00  0.00000E+00  9.000E+00
       1     1     1     2   512     0  6.441933860E+02  4.977677341E+02 -9.308225651E+02  1.236603608E+03  1.525878906E-05  0.00000E+00  9.000E+00
      -1     1     1     2     0   512 -6.425013639E+02 -4.982449175E+02 -1.124206062E+03  1.387405950E+03  1.525878906E-05  0.00000E+00  9.000E+00
      22     1     1     2     0     0 -1.692022096E+00  4.771833866E-01  2.165842913E+00  2.789537288E+00  7.884953353E-08  0.00000E+00  9.000E+00
#rwgt            1          66   1.0123019135370788E-004        6024     4733809           0
<rwgt>
<wgt id='central'>  0.270904781E+03 </wgt>
<wgt id='sudakovwgt'>  0.707027640E-01 </wgt>
<wgt id='scales0.50.5'>  0.349257250E+03 </wgt>
<wgt id='scales0.51.0'>  0.318612071E+03 </wgt>
<wgt id='scales1.00.5'>  0.296961553E+03 </wgt>
<wgt id='scales1.02.0'>  0.248360786E+03 </wgt>
<wgt id='scales2.01.0'>  0.233262496E+03 </wgt>
<wgt id='scales2.02.0'>  0.213850822E+03 </wgt>
</rwgt>
<scales uborns=' 0.813575979E+03'> </scales>
</event>
<event>
      5  10001  1.55477E+03  1.76367E+02  7.29735E-03  1.13673E-01
       2    -1     0     0   513     0  0.000000000E+00  0.000000000E+00  2.795306939E+03  2.795306939E+03  0.000000000E+00  0.00000E+00  9.000E+00
      -3    -1     0     0     0   513  0.000000000E+00  0.000000000E+00 -1.347991378E+02  1.347991378E+02  0.000000000E+00  0.00000E+00  9.000E+00
       2     1     1     2   511     0  4.445590546E+02  3.637980072E+02  1.534891888E+03  1.638863890E+03  2.157918644E-05  0.00000E+00  9.000E+00
      22     1     1     2     0     0 -3.197857394E+02 -3.085780569E+02  1.037895992E+03  1.129031189E+03  0.000000000E+00  0.00000E+00  9.000E+00
      -3     1     1     2     0   511 -1.247733152E+02 -5.521995032E+01  8.771992168E+01  1.622109976E+02  5.800974398E-06  0.00000E+00  9.000E+00
#rwgt            1         146   3.8798000442467580E-004        6024     4769321           0
<rwgt>
<wgt id='central'>  0.155477277E+04 </wgt>
<wgt id='sudakovwgt'>  0.237500980E-02 </wgt>
<wgt id='scales0.50.5'>  0.195942076E+04 </wgt>
<wgt id='scales0.51.0'>  0.183987122E+04 </wgt>
<wgt id='scales1.00.5'>  0.165579449E+04 </wgt>
<wgt id='scales1.02.0'>  0.146239693E+04 </wgt>
<wgt id='scales2.01.0'>  0.133178364E+04 </wgt>
<wgt id='scales2.02.0'>  0.125265879E+04 </wgt>
</rwgt>
<scales uborns=' 0.602549991E+03'> </scales>
</event>
<event>
      5  10001  1.28374E+06  1.01977E+00  7.29735E-03  6.37493E-01
       2    -1     0     0   513     0  0.000000000E+00  0.000000000E+00  3.727339332E+03  3.727339332E+03  0.000000000E+00  0.00000E+00  9.000E+00
      21    -1     0     0   511   513  0.000000000E+00  0.000000000E+00 -1.034242820E+02  1.034242820E+02  0.000000000E+00  0.00000E+00  9.000E+00
       2     1     1     2   512     0  4.285541851E+01 -1.598230138E+02  3.068703107E+03  3.073161034E+03  0.000000000E+00  0.00000E+00  9.000E+00
      21     1     1     2   511   512 -5.058184947E+01  1.880761861E+02 -6.751548738E+00  1.948762650E+02  8.940696716E-06  0.00000E+00  9.000E+00
      22     1     1     2     0     0  7.726430965E+00 -2.825317221E+01  5.619634912E+02  5.627263144E+02  7.629394531E-06  0.00000E+00  9.000E+00
#rwgt            1         182   3.4853035276089045E-002        6024     4771576           0
<rwgt>
<wgt id='central'>  0.128374242E+07 </wgt>
<wgt id='sudakovwgt'>  0.150979793E+00 </wgt>
<wgt id='scales0.50.5'>  0.175999069E+07 </wgt>
<wgt id='scales0.51.0'>  0.156265562E+07 </wgt>
<wgt id='scales1.00.5'>  0.144585309E+07 </wgt>
<wgt id='scales1.02.0'>  0.114582569E+07 </wgt>
<wgt id='scales2.01.0'>  0.107416997E+07 </wgt>
<wgt id='scales2.02.0'>  0.958770112E+06 </wgt>
</rwgt>
<scales uborns=' 0.194759994E+03'> </scales>
</event>
<event>
      5  10001  2.70223E+02  1.11672E+01  7.29735E-03  1.90373E-01
       3    -1     0     0   513     0  0.000000000E+00  0.000000000E+00  3.869636111E+03  3.869636111E+03  0.000000000E+00  0.00000E+00  9.000E+00
      21    -1     0     0   512   513  0.000000000E+00  0.000000000E+00 -5.266561018E+02  5.266561018E+02  0.000000000E+00  0.00000E+00  9.000E+00
       3     1     1     2   514     0 -3.396588988E+01  8.175967148E+02  2.976752629E+03  3.087179017E+03  4.315837288E-05  0.00000E+00  9.000E+00
      21     1     1     2   512   514  4.054045388E+01 -8.085699971E+02 -1.237669829E+02  8.189915962E+02  1.572839976E-05  0.00000E+00  9.000E+00
      22     1     1     2     0     0 -6.574564004E+00 -9.026717697E+00  4.899943629E+02  4.901215994E+02  9.344061824E-06  0.00000E+00  9.000E+00
#rwgt            1         183   5.8857571489026681E-004        6024     4788332           0
<rwgt>
<wgt id='central'>  0.270222804E+03 </wgt>
<wgt id='sudakovwgt'>  0.247122619E-01 </wgt>
<wgt id='scales0.50.5'>  0.365437274E+03 </wgt>
<wgt id='scales0.51.0'>  0.317807223E+03 </wgt>
<wgt id='scales1.00.5'>  0.310721562E+03 </wgt>
<wgt id='scales1.02.0'>  0.237096945E+03 </wgt>
<wgt id='scales2.01.0'>  0.232676964E+03 </wgt>
<wgt id='scales2.02.0'>  0.204153597E+03 </wgt>
</rwgt>
<scales uborns=' 0.813931982E+03'> </scales>
</event>
<event>
      5  10001  7.30451E+03  1.18317E+02  7.29735E-03  1.20629E-01
       2    -1     0     0   513     0  0.000000000E+00  0.000000000E+00  2.578528211E+03  2.578528211E+03  0.000000000E+00  0.00000E+00  9.000E+00
       3    -1     0     0   511     0  0.000000000E+00  0.000000000E+00 -2.537501386E+02  2.537501386E+02  0.000000000E+00  0.00000E+00  9.000E+00
       2     1     1     2   511     0 -4.758469748E+02  3.001585207E+01  1.658335470E+03  1.725516684E+03  3.051757812E-05  0.00000E+00  9.000E+00
       3     1     1     2   513     0  4.352605583E+02 -1.411536149E+02  2.906829543E+01  4.584987049E+02  1.118790455E-05  0.00000E+00  9.000E+00
      22     1     1     2     0     0  4.058641652E+01  1.111377628E+02  6.373743068E+02  6.482629609E+02  1.525878906E-05  0.00000E+00  9.000E+00
#rwgt            1         102   3.9463764710561349E-004        6024     4788893           0
<rwgt>
<wgt id='central'>  0.730451061E+04 </wgt>
<wgt id='sudakovwgt'>  0.266222135E-01 </wgt>
<wgt id='scales0.50.5'>  0.915003947E+04 </wgt>
<wgt id='scales0.51.0'>  0.869416959E+04 </wgt>
<wgt id='scales1.00.5'>  0.768751450E+04 </wgt>
<wgt id='scales1.02.0'>  0.694461637E+04 </wgt>
<wgt id='scales2.01.0'>  0.622654465E+04 </wgt>
<wgt id='scales2.02.0'>  0.591976243E+04 </wgt>
</rwgt>
<scales uborns=' 0.463478219E+03'> </scales>
</event>
<event>
      5  10001  6.04763E+00  9.41529E+01  7.29735E-03  1.25016E-01
       2    -1     0     0   511     0  0.000000000E+00  0.000000000E+00  2.451842520E+03  2.451842520E+03  0.000000000E+00  0.00000E+00  9.000E+00
       2    -1     0     0   512     0  0.000000000E+00  0.000000000E+00 -1.251526810E+03  1.251526810E+03  0.000000000E+00  0.00000E+00  9.000E+00
       2     1     1     2   512     0  8.738738795E+02 -1.310433858E+03  3.556758644E+02  1.614743872E+03  4.988363964E-05  0.00000E+00  9.000E+00
       2     1     1     2   511     0 -9.161126038E+02  1.394580456E+03  9.713920541E+02  1.930730296E+03  4.178791485E-05  0.00000E+00  9.000E+00
      22     1     1     2     0     0  4.223872433E+01 -8.414659875E+01 -1.267522090E+02  1.578951627E+02  1.907348633E-06  0.00000E+00  9.000E+00
#rwgt            1          97   2.6758365225939803E-003        6024     4789872           0
<rwgt>
<wgt id='central'>  0.604762670E+01 </wgt>
<wgt id='sudakovwgt'>  0.506211181E-01 </wgt>
<wgt id='scales0.50.5'>  0.774493424E+01 </wgt>
<wgt id='scales0.51.0'>  0.702399415E+01 </wgt>
<wgt id='scales1.00.5'>  0.666835644E+01 </wgt>
<wgt id='scales1.02.0'>  0.551803043E+01 </wgt>
<wgt id='scales2.01.0'>  0.526331152E+01 </wgt>
<wgt id='scales2.02.0'>  0.480239584E+01 </wgt>
</rwgt>
<scales uborns=' 0.162116069E+04'> </scales>
</event>
<event>
      5  10001  2.40913E+04  1.24902E+01  7.29735E-03  1.85218E-01
       2    -1     0     0   512     0  0.000000000E+00  0.000000000E+00  7.138927696E+02  7.138927696E+02  0.000000000E+00  0.00000E+00  9.000E+00
      21    -1     0     0   513   514  0.000000000E+00  0.000000000E+00 -3.877834643E+02  3.877834643E+02  0.000000000E+00  0.00000E+00  9.000E+00
       2     1     1     2   513     0  2.028427772E+02  3.189262324E+02  4.745891764E+02  6.067075245E+02  1.206313194E-05  0.00000E+00  9.000E+00
      21     1     1     2   512   514 -2.143460434E+02 -3.140600324E+02 -2.085104244E+02  4.336525421E+02  1.009274029E-05  0.00000E+00  9.000E+00
      22     1     1     2     0     0  1.150326621E+01 -4.866200055E+00  6.003055333E+01  6.131616728E+01  9.536743164E-07  0.00000E+00  9.000E+00
#rwgt            1         182   4.8508324428450907E-003        6024     4806890           0
<rwgt>
<wgt id='central'>  0.240913305E+05 </wgt>
<wgt id='sudakovwgt'>  0.514081529E-01 </wgt>
<wgt id='scales0.50.5'>  0.307964988E+05 </wgt>
<wgt id='scales0.51.0'>  0.288103803E+05 </wgt>
<wgt id='scales1.00.5'>  0.257520964E+05 </wgt>
<wgt id='scales1.02.0'>  0.225960722E+05 </wgt>
<wgt id='scales2.01.0'>  0.204552046E+05 </wgt>
<wgt id='scales2.02.0'>  0.191856512E+05 </wgt>
</rwgt>
<scales uborns=' 0.379049866E+03'> </scales>
</event>
<event>
      5  10001  6.00322E+01  9.71273E+01  7.29735E-03  1.24400E-01
       2    -1     0     0   512     0  0.000000000E+00  0.000000000E+00  1.867897858E+03  1.867897858E+03  0.000000000E+00  0.00000E+00  9.000E+00
      21    -1     0     0   515   512  0.000000000E+00  0.000000000E+00 -8.292855539E+02  8.292855539E+02  0.000000000E+00  0.00000E+00  9.000E+00
      22     1     1     2     0     0  5.134495522E+02  4.389441917E+02  8.474135052E+02  1.083702955E+03  1.525878906E-05  0.00000E+00  9.000E+00
      21     1     1     2   515   511 -8.486060816E+02 -6.304427140E+02 -1.864319873E+02  1.073474351E+03  1.945121580E-05  0.00000E+00  9.000E+00
       2     1     1     2   511     0  3.351565294E+02  1.914985223E+02  3.776307866E+02  5.400061057E+02  9.344061824E-06  0.00000E+00  9.000E+00
#rwgt            1         182   7.7687436580876085E-003        6024     4810175           0
<rwgt>
<wgt id='central'>  0.600322254E+02 </wgt>
<wgt id='sudakovwgt'>  0.205485906E-02 </wgt>
<wgt id='scales0.50.5'>  0.796749559E+02 </wgt>
<wgt id='scales0.51.0'>  0.702474217E+02 </wgt>
<wgt id='scales1.00.5'>  0.680888034E+02 </wgt>
<wgt id='scales1.02.0'>  0.533643203E+02 </wgt>
<wgt id='scales2.01.0'>  0.519135461E+02 </wgt>
<wgt id='scales2.02.0'>  0.461474193E+02 </wgt>
</rwgt>
<scales uborns=' 0.106025991E+04'> </scales>
</event>
<event>
      5  10001  5.62958E+02  1.60847E+02  7.29735E-03  1.15204E-01
       2    -1     0     0   511     0  0.000000000E+00  0.000000000E+00  1.790651097E+03  1.790651097E+03  0.000000000E+00  0.00000E+00  9.000E+00
       2    -1     0     0   513     0  0.000000000E+00  0.000000000E+00 -1.748410078E+03  1.748410078E+03  0.000000000E+00  0.00000E+00  9.000E+00
       2     1     1     2   511     0 -6.264148902E+02 -4.834317621E+02 -1.495854864E+03  1.692242199E+03  2.157918644E-05  0.00000E+00  9.000E+00
       2     1     1     2   513     0  4.703408114E+02  4.445407579E+02  5.607210410E+02  8.562972907E+02  1.078959322E-05  0.00000E+00  9.000E+00
      22     1     1     2     0     0  1.560740788E+02  3.889100426E+01  9.773748425E+02  9.905216863E+02  1.525878906E-05  0.00000E+00  9.000E+00
#rwgt            1          97   2.4434205383762823E-003        6024     4811543           0
<rwgt>
<wgt id='central'>  0.562958016E+03 </wgt>
<wgt id='sudakovwgt'>  0.261816962E-01 </wgt>
<wgt id='scales0.50.5'>  0.716194891E+03 </wgt>
<wgt id='scales0.51.0'>  0.663777466E+03 </wgt>
<wgt id='scales1.00.5'>  0.607413876E+03 </wgt>
<wgt id='scales1.02.0'>  0.524114216E+03 </wgt>
<wgt id='scales2.01.0'>  0.483695308E+03 </wgt>
<wgt id='scales2.02.0'>  0.450320604E+03 </wgt>
</rwgt>
<scales uborns=' 0.717001211E+03'> </scales>
</event>
<event>
      5  10001  9.89987E+02  4.67777E+01  7.29735E-03  1.40746E-01
       2    -1     0     0   514     0  0.000000000E+00  0.000000000E+00  7.967215153E+02  7.967215153E+02  0.000000000E+00  0.00000E+00  9.000E+00
      21    -1     0     0   512   511  0.000000000E+00  0.000000000E+00 -1.267189748E+03  1.267189748E+03  0.000000000E+00  0.00000E+00  9.000E+00
       2     1     1     2   512     0  6.444427188E+02 -9.772229453E+01 -8.381341977E+01  6.571763492E+02  1.044697871E-05  0.00000E+00  9.000E+00
      21     1     1     2   514   511 -6.486778853E+02  5.113673203E+01 -7.770705579E+02  1.013526821E+03  1.078959322E-05  0.00000E+00  9.000E+00
      22     1     1     2     0     0  4.235166495E+00  4.658556251E+01  3.904157446E+02  3.932080937E+02  5.394796609E-06  0.00000E+00  9.000E+00
#rwgt            1         182   1.5719411858822370E-003        6024     4820320           0
<rwgt>
<wgt id='central'>  0.989986663E+03 </wgt>
<wgt id='sudakovwgt'>  0.334099352E-01 </wgt>
<wgt id='scales0.50.5'>  0.129446677E+04 </wgt>
<wgt id='scales0.51.0'>  0.116961820E+04 </wgt>
<wgt id='scales1.00.5'>  0.109566119E+04 </wgt>
<wgt id='scales1.02.0'>  0.900441795E+03 </wgt>
<wgt id='scales2.01.0'>  0.849165731E+03 </wgt>
<wgt id='scales2.02.0'>  0.772357935E+03 </wgt>
</rwgt>
<scales uborns=' 0.650830022E+03'> </scales>
</event>
<event>
      5  10001  1.33812E+01  1.71333E+01  7.29735E-03  1.72110E-01
       2    -1     0     0   511     0  0.000000000E+00  0.000000000E+00  8.223304072E+02  8.223304072E+02  0.000000000E+00  0.00000E+00  9.000E+00
       1    -1     0     0   513     0  0.000000000E+00  0.000000000E+00 -3.392732019E+03  3.392732019E+03  0.000000000E+00  0.00000E+00  9.000E+00
       2     1     1     2   513     0 -9.835134912E+02 -9.451584926E+02 -1.365314584E+02  1.370862576E+03  2.829055209E-05  0.00000E+00  9.000E+00
       1     1     1     2   511     0  1.008284490E+03  9.604765886E+02 -2.444402861E+03  2.813229147E+03  0.000000000E+00  0.00000E+00  9.000E+00
      22     1     1     2     0     0 -2.477099895E+01 -1.531809603E+01  1.053270780E+01  3.097070210E+01  7.539457465E-07  0.00000E+00  9.000E+00
#rwgt            1          92   6.9840653683866884E-004        6024     4822055           0
<rwgt>
<wgt id='central'>  0.133812039E+02 </wgt>
<wgt id='sudakovwgt'>  0.602091567E-02 </wgt>
<wgt id='scales0.50.5'>  0.178023661E+02 </wgt>
<wgt id='scales0.51.0'>  0.155816238E+02 </wgt>
<wgt id='scales1.00.5'>  0.152883309E+02 </wgt>
<wgt id='scales1.02.0'>  0.118163388E+02 </wgt>
<wgt id='scales2.01.0'>  0.116200923E+02 </wgt>
<wgt id='scales2.02.0'>  0.102611835E+02 </wgt>
</rwgt>
<scales uborns=' 0.139379713E+04'> </scales>
</event>
<event>
      5  10001  2.46925E+01  5.13802E+02  7.29735E-03  9.85171E-02
      21    -1     0     0   513   514  0.000000000E+00  0.000000000E+00  1.282836185E+03  1.282836185E+03  0.000000000E+00  0.00000E+00  9.000E+00
       1    -1     0     0   514     0  0.000000000E+00  0.000000000E+00 -1.207609324E+03  1.207609324E+03  0.000000000E+00  0.00000E+00  9.000E+00
       1     1     1     2   512     0  6.793330035E+02  1.800005546E+02  2.778640821E+02  7.557128935E+02  2.288818359E-05  0.00000E+00  9.000E+00
      21     1     1     2   513   512 -1.058804920E+03 -5.087673452E+02  4.362945848E+01  1.175506529E+03  1.909135935E-05  0.00000E+00  9.000E+00
      22     1     1     2     0     0  3.794719166E+02  3.287667907E+02 -2.462666803E+02  5.592260866E+02  2.272868211E-05  0.00000E+00  9.000E+00
#rwgt            1         186   1.3215339268815437E-003        6024     4844189           0
<rwgt>
<wgt id='central'>  0.246924719E+02 </wgt>
<wgt id='sudakovwgt'>  0.270527512E-01 </wgt>
<wgt id='scales0.50.5'>  0.329328460E+02 </wgt>
<wgt id='scales0.51.0'>  0.288102425E+02 </wgt>
<wgt id='scales1.00.5'>  0.282258749E+02 </wgt>
<wgt id='scales1.02.0'>  0.217962917E+02 </wgt>
<wgt id='scales2.01.0'>  0.214062344E+02 </wgt>
<wgt id='scales2.02.0'>  0.188954755E+02 </wgt>
</rwgt>
<scales uborns=' 0.124462477E+04'> </scales>
</event>
<event>
      5  10001  6.47114E+05  2.00753E+01  7.29735E-03  1.66234E-01
      21    -1     0     0   511   514  0.000000000E+00  0.000000000E+00  6.883549132E+01  6.883549132E+01  0.000000000E+00  0.00000E+00  9.000E+00
       1    -1     0     0   512     0  0.000000000E+00  0.000000000E+00 -7.728099498E+02  7.728099498E+02  0.000000000E+00  0.00000E+00  9.000E+00
       1     1     1     2   511     0  1.292058806E+02 -1.226842919E+02 -1.547881399E+02  2.360189893E+02  6.031565972E-06  0.00000E+00  9.000E+00
      21     1     1     2   512   514 -1.588400557E+02  1.468025161E+02 -4.827123919E+02  5.289540579E+02  1.078959322E-05  0.00000E+00  9.000E+00
      22     1     1     2     0     0  2.963417511E+01 -2.411822420E+01 -6.647392659E+01  7.667239393E+01  9.536743164E-07  0.00000E+00  9.000E+00
#rwgt            1         186   1.2145078502234067E-003        6024     4844284           0
<rwgt>
<wgt id='central'>  0.647114061E+06 </wgt>
<wgt id='sudakovwgt'>  0.254561325E-01 </wgt>
<wgt id='scales0.50.5'>  0.795343485E+06 </wgt>
<wgt id='scales0.51.0'>  0.785115395E+06 </wgt>
<wgt id='scales1.00.5'>  0.655544277E+06 </wgt>
<wgt id='scales1.02.0'>  0.635177387E+06 </wgt>
<wgt id='scales2.01.0'>  0.542937317E+06 </wgt>
<wgt id='scales2.02.0'>  0.532922339E+06 </wgt>
</rwgt>
<scales uborns=' 0.218380916E+03'> </scales>
</event>
<event>
      5  10001  2.33128E+04  7.01883E+02  7.29735E-03  9.48401E-02
       2    -1     0     0   511     0  0.000000000E+00  0.000000000E+00  1.268720604E+02  1.268720604E+02  0.000000000E+00  0.00000E+00  9.000E+00
       2    -1     0     0   513     0  0.000000000E+00  0.000000000E+00 -1.150171945E+03  1.150171945E+03  0.000000000E+00  0.00000E+00  9.000E+00
       2     1     1     2   513     0  3.172462490E+01 -4.015964351E+01 -7.442199696E+01  9.032099658E+01  7.509239077E-06  0.00000E+00  9.000E+00
       2     1     1     2   511     0 -5.060723765E+01  1.023324740E+02 -1.055611466E+03  1.061766733E+03  0.000000000E+00  0.00000E+00  9.000E+00
      22     1     1     2     0     0  1.888261275E+01 -6.217283048E+01  1.067335789E+02  1.249562755E+02  7.262967211E-06  0.00000E+00  9.000E+00
#rwgt            1          97   2.7537346941099058E-004        6024     4844495           0
<rwgt>
<wgt id='central'>  0.233128081E+05 </wgt>
<wgt id='sudakovwgt'>  0.219478073E-02 </wgt>
<wgt id='scales0.50.5'>  0.283925081E+05 </wgt>
<wgt id='scales0.51.0'>  0.278756691E+05 </wgt>
<wgt id='scales1.00.5'>  0.237450395E+05 </wgt>
<wgt id='scales1.02.0'>  0.228579976E+05 </wgt>
<wgt id='scales2.01.0'>  0.197964004E+05 </wgt>
<wgt id='scales2.02.0'>  0.194101984E+05 </wgt>
</rwgt>
<scales uborns=' 0.381149642E+03'> </scales>
</event>
<event>
      5  10001  7.13640E+02  5.80937E+01  7.29735E-03  1.35457E-01
       2    -1     0     0   511     0  0.000000000E+00  0.000000000E+00  3.927263341E+03  3.927263341E+03  0.000000000E+00  0.00000E+00  9.000E+00
      21    -1     0     0   514   511  0.000000000E+00  0.000000000E+00 -2.319933348E+02  2.319933348E+02  0.000000000E+00  0.00000E+00  9.000E+00
       2     1     1     2   512     0  6.645600280E+02  8.897184260E+01  3.074956398E+03  3.147207154E+03  4.315837288E-05  0.00000E+00  9.000E+00
      21     1     1     2   514   512 -6.774918638E+02 -4.739342000E+01  4.015115076E+02  7.889568128E+02  1.868812365E-05  0.00000E+00  9.000E+00
      22     1     1     2     0     0  1.293183580E+01 -4.157842260E+01  2.188021007E+02  2.230927091E+02  2.697398305E-06  0.00000E+00  9.000E+00
#rwgt            1         182   3.0605068427856826E-002        6024     4844741           0
<rwgt>
<wgt id='central'>  0.713639929E+03 </wgt>
<wgt id='sudakovwgt'>  0.120763153E-02 </wgt>
<wgt id='scales0.50.5'>  0.970549974E+03 </wgt>
<wgt id='scales0.51.0'>  0.842147976E+03 </wgt>
<wgt id='scales1.00.5'>  0.822448433E+03 </wgt>
<wgt id='scales1.02.0'>  0.624620849E+03 </wgt>
<wgt id='scales2.01.0'>  0.612729304E+03 </wgt>
<wgt id='scales2.02.0'>  0.536297711E+03 </wgt>
</rwgt>
<scales uborns=' 0.688371679E+03'> </scales>
</event>
<event>
      5  10001  3.06445E+05  1.37627E+00  7.29735E-03  4.76179E-01
      21    -1     0     0   512   514  0.000000000E+00  0.000000000E+00  1.468891417E+02  1.468891417E+02  0.000000000E+00  0.00000E+00  9.000E+00
      -2    -1     0     0     0   513  0.000000000E+00  0.000000000E+00 -5.850478300E+02  5.850478300E+02  0.000000000E+00  0.00000E+00  9.000E+00
      22     1     1     2     0     0 -9.770434782E+01 -1.439528558E+02 -1.601887088E+01  1.747145343E+02  3.108597949E-06  0.00000E+00  9.000E+00
      21     1     1     2   512   513  1.378293955E+02  2.055169946E+02 -4.152806614E+02  4.834172164E+02  7.629394531E-06  0.00000E+00  9.000E+00
      -2     1     1     2     0   514 -4.012504764E+01 -6.156413884E+01 -6.859156063E+00  7.380522110E+01  3.371747881E-07  0.00000E+00  9.000E+00
#rwgt            1         197   1.1902199566265357E-004        6024     4846757           0
<rwgt>
<wgt id='central'>  0.306444998E+06 </wgt>
<wgt id='sudakovwgt'>  0.228011937E+00 </wgt>
<wgt id='scales0.50.5'>  0.384935194E+06 </wgt>
<wgt id='scales0.51.0'>  0.370506261E+06 </wgt>
<wgt id='scales1.00.5'>  0.318379142E+06 </wgt>
<wgt id='scales1.02.0'>  0.294239669E+06 </wgt>
<wgt id='scales2.01.0'>  0.257846515E+06 </wgt>
<wgt id='scales2.02.0'>  0.247576803E+06 </wgt>
</rwgt>
<scales uborns=' 0.247458635E+03'> </scales>
</event>
<event>
      5  10001  1.42964E+03  1.74762E+01  7.29735E-03  1.71352E-01
       2    -1     0     0   513     0  0.000000000E+00  0.000000000E+00  1.622760274E+03  1.622760274E+03  0.000000000E+00  0.00000E+00  9.000E+00
      21    -1     0     0   511   515  0.000000000E+00  0.000000000E+00 -2.304794111E+02  2.304794111E+02  0.000000000E+00  0.00000E+00  9.000E+00
       2     1     1     2   511     0 -5.990881960E+02  6.323284169E+01  6.448302111E+02  8.824460664E+02  1.321449896E-05  0.00000E+00  9.000E+00
      21     1     1     2   513   515  6.011927386E+02 -7.481648924E+01  7.203153949E+02  9.412143667E+02  1.321449896E-05  0.00000E+00  9.000E+00
      22     1     1     2     0     0 -2.104542576E+00  1.158364755E+01  2.713525685E+01  2.957925210E+01  5.840038640E-07  0.00000E+00  9.000E+00
#rwgt            1         182   7.0441203437453664E-003        6024     4851676           0
<rwgt>
<wgt id='central'>  0.142963836E+04 </wgt>
<wgt id='sudakovwgt'>  0.713009334E-01 </wgt>
<wgt id='scales0.50.5'>  0.183118583E+04 </wgt>
<wgt id='scales0.51.0'>  0.169128086E+04 </wgt>
<wgt id='scales1.00.5'>  0.154790170E+04 </wgt>
<wgt id='scales1.02.0'>  0.132474384E+04 </wgt>
<wgt id='scales2.01.0'>  0.122491389E+04 </wgt>
<wgt id='scales2.02.0'>  0.113503898E+04 </wgt>
</rwgt>
<scales uborns=' 0.611232371E+03'> </scales>
</event>
<event>
      5  10001  6.48422E+02  3.56005E+00  7.29735E-03  2.75993E-01
      21    -1     0     0   512   511  0.000000000E+00  0.000000000E+00  2.874406572E+02  2.874406572E+02  0.000000000E+00  0.00000E+00  9.000E+00
       2    -1     0     0   514     0  0.000000000E+00  0.000000000E+00 -1.778211344E+03  1.778211344E+03  0.000000000E+00  0.00000E+00  9.000E+00
       2     1     1     2   512     0  5.458724417E+02  2.872053314E+01 -7.520638301E+02  9.297320023E+02  1.525878906E-05  0.00000E+00  9.000E+00
      21     1     1     2   514   511 -6.987785257E+02 -3.735092666E+01 -5.339316695E+02  8.802099451E+02  1.321449896E-05  0.00000E+00  9.000E+00
      22     1     1     2     0     0  1.529060841E+02  8.630393513E+00 -2.047751868E+02  2.557100533E+02  3.814697266E-06  0.00000E+00  9.000E+00
#rwgt            1         187   1.0872184041992243E-002        6024     4854749           0
<rwgt>
<wgt id='central'>  0.648422233E+03 </wgt>
<wgt id='sudakovwgt'>  0.188718057E-02 </wgt>
<wgt id='scales0.50.5'>  0.837640109E+03 </wgt>
<wgt id='scales0.51.0'>  0.764927112E+03 </wgt>
<wgt id='scales1.00.5'>  0.710060169E+03 </wgt>
<wgt id='scales1.02.0'>  0.594860773E+03 </wgt>
<wgt id='scales2.01.0'>  0.556892389E+03 </wgt>
<wgt id='scales2.02.0'>  0.510891730E+03 </wgt>
</rwgt>
<scales uborns=' 0.699791604E+03'> </scales>
</event>
<event>
      5  10001  3.13549E+05  3.06791E+00  7.29735E-03  2.93949E-01
       1    -1     0     0   513     0  0.000000000E+00  0.000000000E+00  4.977763024E+02  4.977763024E+02  0.000000000E+00  0.00000E+00  9.000E+00
      -3    -1     0     0     0   513  0.000000000E+00  0.000000000E+00 -4.208086092E+02  4.208086092E+02  0.000000000E+00  0.00000E+00  9.000E+00
      22     1     1     2     0     0 -3.497070059E+01 -6.866709413E+01  1.325986125E+02  1.533639845E+02  0.000000000E+00  0.00000E+00  9.000E+00
      -3     1     1     2     0   514  1.091920563E+02  2.210078315E+02 -3.484923190E+02  4.268656266E+02  8.529922400E-06  0.00000E+00  9.000E+00
       1     1     1     2   514     0 -7.422135576E+01 -1.523407374E+02  2.928613997E+02  3.383553005E+02  5.394796609E-06  0.00000E+00  9.000E+00
#rwgt            1         142   6.4978848571117359E-005        6024     4857186           0
<rwgt>
<wgt id='central'>  0.313549237E+06 </wgt>
<wgt id='sudakovwgt'>  0.355432113E-01 </wgt>
<wgt id='scales0.50.5'>  0.386334761E+06 </wgt>
<wgt id='scales0.51.0'>  0.379135023E+06 </wgt>
<wgt id='scales1.00.5'>  0.319503265E+06 </wgt>
<wgt id='scales1.02.0'>  0.306654355E+06 </wgt>
<wgt id='scales2.01.0'>  0.263801180E+06 </wgt>
<wgt id='scales2.02.0'>  0.258000442E+06 </wgt>
</rwgt>
<scales uborns=' 0.246511634E+03'> </scales>
</event>
<event>
      5  10001  5.95402E+01  1.05374E+02  7.29735E-03  1.22814E-01
       2    -1     0     0   513     0  0.000000000E+00  0.000000000E+00  2.510146444E+03  2.510146444E+03  0.000000000E+00  0.00000E+00  9.000E+00
      21    -1     0     0   511   512  0.000000000E+00  0.000000000E+00 -6.621470189E+02  6.621470189E+02  0.000000000E+00  0.00000E+00  9.000E+00
       2     1     1     2   511     0 -3.623810116E+02 -1.036961572E+03  1.039000586E+03  1.511995872E+03  3.051757812E-05  0.00000E+00  9.000E+00
      21     1     1     2   513   512  2.668857767E+02  9.924168231E+02  2.059477524E+02  1.048109558E+03  1.078959322E-05  0.00000E+00  9.000E+00
      22     1     1     2     0     0  9.549523488E+01  4.454474921E+01  6.030510859E+02  6.121880322E+02  7.629394531E-06  0.00000E+00  9.000E+00
#rwgt            1         182   8.2004883379171428E-003        6024     4859963           0
<rwgt>
<wgt id='central'>  0.595401752E+02 </wgt>
<wgt id='sudakovwgt'>  0.288655528E-01 </wgt>
<wgt id='scales0.50.5'>  0.784222861E+02 </wgt>
<wgt id='scales0.51.0'>  0.696698088E+02 </wgt>
<wgt id='scales1.00.5'>  0.670201150E+02 </wgt>
<wgt id='scales1.02.0'>  0.532894434E+02 </wgt>
<wgt id='scales2.01.0'>  0.514892753E+02 </wgt>
<wgt id='scales2.02.0'>  0.460837354E+02 </wgt>
</rwgt>
<scales uborns=' 0.106181775E+04'> </scales>
</event>
<event>
      5  10001  4.41986E+03  1.10123E+02  7.29735E-03  1.21973E-01
       2    -1     0     0   511     0  0.000000000E+00  0.000000000E+00  7.101202558E+02  7.101202558E+02  0.000000000E+00  0.00000E+00  9.000E+00
      21    -1     0     0   514   515  0.000000000E+00  0.000000000E+00 -3.585925808E+02  3.585925808E+02  0.000000000E+00  0.00000E+00  9.000E+00
       2     1     1     2   514     0  3.362777023E+02  3.326303912E+02  1.484903230E+02  4.957570435E+02  7.864199878E-06  0.00000E+00  9.000E+00
      21     1     1     2   511   515 -2.801528797E+02 -3.707359056E+02  1.550807085E+02  4.898783256E+02  1.009274029E-05  0.00000E+00  9.000E+00
      22     1     1     2     0     0 -5.612482257E+01  3.810551448E+01  4.795664348E+01  8.307746744E+01  2.336015456E-06  0.00000E+00  9.000E+00
#rwgt            1         182   3.6084048742711910E-003        6024     4861160           0
<rwgt>
<wgt id='central'>  0.441985591E+04 </wgt>
<wgt id='sudakovwgt'>  0.546329363E-03 </wgt>
<wgt id='scales0.50.5'>  0.560363581E+04 </wgt>
<wgt id='scales0.51.0'>  0.525063467E+04 </wgt>
<wgt id='scales1.00.5'>  0.471700800E+04 </wgt>
<wgt id='scales1.02.0'>  0.415179518E+04 </wgt>
<wgt id='scales2.01.0'>  0.377366074E+04 </wgt>
<wgt id='scales2.02.0'>  0.354478795E+04 </wgt>
</rwgt>
<scales uborns=' 0.504574487E+03'> </scales>
</event>
<event>
      5  10001  1.30736E+05  2.40127E+01  7.29735E-03  1.60073E-01
      21    -1     0     0   512   513  0.000000000E+00  0.000000000E+00  4.606035799E+02  4.606035799E+02  0.000000000E+00  0.00000E+00  9.000E+00
       2    -1     0     0   514     0  0.000000000E+00  0.000000000E+00 -2.085594544E+02  2.085594544E+02  0.000000000E+00  0.00000E+00  9.000E+00
       2     1     1     2   512     0  7.057008825E+01 -1.702529830E+02 -1.606822392E+01  1.849983876E+02  2.910269646E-06  0.00000E+00  9.000E+00
      21     1     1     2   514   513 -1.210526810E+02  2.575096130E+02  2.557763308E+02  3.826048663E+02  2.697398305E-06  0.00000E+00  9.000E+00
      22     1     1     2     0     0  5.048259272E+01 -8.725663000E+01  1.233601862E+01  1.015597804E+02  1.554298974E-06  0.00000E+00  9.000E+00
#rwgt            1         187   2.2940818646040345E-003        6024     4861782           0
<rwgt>
<wgt id='central'>  0.130736126E+06 </wgt>
<wgt id='sudakovwgt'>  0.143964958E-02 </wgt>
<wgt id='scales0.50.5'>  0.165166403E+06 </wgt>
<wgt id='scales0.51.0'>  0.157464577E+06 </wgt>
<wgt id='scales1.00.5'>  0.137130491E+06 </wgt>
<wgt id='scales1.02.0'>  0.124697245E+06 </wgt>
<wgt id='scales2.01.0'>  0.110349079E+06 </wgt>
<wgt id='scales2.02.0'>  0.105252005E+06 </wgt>
</rwgt>
<scales uborns=' 0.285387648E+03'> </scales>
</event>
<event>
      5  10001  4.97306E+04  1.36665E+01  7.29735E-03  1.81279E-01
      21    -1     0     0   511   515  0.000000000E+00  0.000000000E+00  3.357821703E+02  3.357821703E+02  0.000000000E+00  0.00000E+00  9.000E+00
       1    -1     0     0   512     0  0.000000000E+00  0.000000000E+00 -6.306105738E+02  6.306105738E+02  0.000000000E+00  0.00000E+00  9.000E+00
       1     1     1     2   511     0 -2.886916371E+02  1.588056255E+02  1.782808315E+02  3.746280061E+02  9.147322699E-06  0.00000E+00  9.000E+00
      21     1     1     2   512   515  2.965109208E+02 -1.700141802E+02 -4.551607334E+02  5.692054470E+02  5.394796609E-06  0.00000E+00  9.000E+00
      22     1     1     2     0     0 -7.819283720E+00  1.120855477E+01 -1.794850166E+01  2.255929098E+01  2.384185791E-07  0.00000E+00  9.000E+00
#rwgt            1         186   1.9082712445630070E-004        6024     4862687           0
<rwgt>
<wgt id='central'>  0.497306246E+05 </wgt>
<wgt id='sudakovwgt'>  0.348742491E-01 </wgt>
<wgt id='scales0.50.5'>  0.638496164E+05 </wgt>
<wgt id='scales0.51.0'>  0.596501307E+05 </wgt>
<wgt id='scales1.00.5'>  0.532317314E+05 </wgt>
<wgt id='scales1.02.0'>  0.465682831E+05 </wgt>
<wgt id='scales2.01.0'>  0.421199284E+05 </wgt>
<wgt id='scales2.02.0'>  0.394415662E+05 </wgt>
</rwgt>
<scales uborns=' 0.335596733E+03'> </scales>
</event>
<event>
      5  10001  9.07171E+02  6.04438E+01  7.29735E-03  1.34532E-01
       1    -1     0     0   514     0  0.000000000E+00  0.000000000E+00  2.809192172E+03  2.809192172E+03  0.000000000E+00  0.00000E+00  9.000E+00
      21    -1     0     0   513   511  0.000000000E+00  0.000000000E+00 -1.799416476E+02  1.799416476E+02  0.000000000E+00  0.00000E+00  9.000E+00
       1     1     1     2   513     0  4.905534659E+02  3.630987608E+02  6.725011457E+02  9.081526325E+02  1.705984480E-05  0.00000E+00  9.000E+00
      21     1     1     2   514   511 -4.906306456E+02 -4.222784094E+02  1.829426939E+03  1.940577339E+03  2.157918644E-05  0.00000E+00  9.000E+00
      22     1     1     2     0     0  7.717969166E-02  5.917964857E+01  1.273224398E+02  1.404038476E+02  2.336015456E-06  0.00000E+00  9.000E+00
#rwgt            1         181   1.2675830725788209E-003        6024     4863077           0
<rwgt>
<wgt id='central'>  0.907170695E+03 </wgt>
<wgt id='sudakovwgt'>  0.381675869E-01 </wgt>
<wgt id='scales0.50.5'>  0.120978871E+04 </wgt>
<wgt id='scales0.51.0'>  0.107144117E+04 </wgt>
<wgt id='scales1.00.5'>  0.102430750E+04 </wgt>
<wgt id='scales1.02.0'>  0.808625646E+03 </wgt>
<wgt id='scales2.01.0'>  0.778334681E+03 </wgt>
<wgt id='scales2.02.0'>  0.693784727E+03 </wgt>
</rwgt>
<scales uborns=' 0.660633965E+03'> </scales>
</event>
<event>
      5  10001  7.02213E+03  1.58632E+01  7.29735E-03  1.75124E-01
      21    -1     0     0   513   515  0.000000000E+00  0.000000000E+00  1.954230136E+02  1.954230136E+02  0.000000000E+00  0.00000E+00  9.000E+00
       2    -1     0     0   515     0  0.000000000E+00  0.000000000E+00 -2.109007076E+03  2.109007076E+03  0.000000000E+00  0.00000E+00  9.000E+00
       2     1     1     2   512     0  2.609855550E+02  1.027607855E+02 -1.030976713E+03  1.068450383E+03  0.000000000E+00  0.00000E+00  9.000E+00
      21     1     1     2   513   512 -4.290405891E+02 -1.830832918E+02 -1.653159837E+02  4.948986697E+02  1.095688371E-05  0.00000E+00  9.000E+00
      22     1     1     2     0     0  1.680550341E+02  8.032250626E+01 -7.172913664E+02  7.410810372E+02  7.629394531E-06  0.00000E+00  9.000E+00
#rwgt            1         187   1.7637153242256485E-002        6024     4863264           0
<rwgt>
<wgt id='central'>  0.702213457E+04 </wgt>
<wgt id='sudakovwgt'>  0.212762210E-02 </wgt>
<wgt id='scales0.50.5'>  0.913647041E+04 </wgt>
<wgt id='scales0.51.0'>  0.835679676E+04 </wgt>
<wgt id='scales1.00.5'>  0.767728171E+04 </wgt>
<wgt id='scales1.02.0'>  0.644777859E+04 </wgt>
<wgt id='scales2.01.0'>  0.598659874E+04 </wgt>
<wgt id='scales2.02.0'>  0.549694511E+04 </wgt>
</rwgt>
<scales uborns=' 0.466575104E+03'> </scales>
</event>
<event>
      4  10001  7.13448E+01  8.94427E-01  7.29735E-03  7.40674E-01
      21    -1     0     0   511   514  0.000000000E+00  0.000000000E+00  5.979623140E+02  5.979623140E+02  0.000000000E+00  0.00000E+00  9.000E+00
       1    -1     0     0   512     0  0.000000000E+00  0.000000000E+00 -1.863856216E+03  1.863856216E+03  0.000000000E+00  0.00000E+00  9.000E+00
       1     1     1     2   511     0  1.010167164E+03 -1.915568575E+02 -9.122518261E+02  1.374530874E+03  1.078959322E-05  0.00000E+00  9.000E+00
      21     1     1     2   512   514 -1.010167164E+03  1.915568575E+02 -3.536420760E+02  1.087287656E+03  3.814697266E-06  0.00000E+00  9.000E+00
#rwgt            1         186   3.2461141548769390E-003        6024     4864412           0
<rwgt>
<wgt id='central'>  0.713447516E+02 </wgt>
<wgt id='sudakovwgt'>  0.216930672E+01 </wgt>
<wgt id='scales0.50.5'>  0.948026630E+02 </wgt>
<wgt id='scales0.51.0'>  0.835326825E+02 </wgt>
<wgt id='scales1.00.5'>  0.809704277E+02 </wgt>
<wgt id='scales1.02.0'>  0.633643636E+02 </wgt>
<wgt id='scales2.01.0'>  0.616662529E+02 </wgt>
<wgt id='scales2.02.0'>  0.547684326E+02 </wgt>
</rwgt>
<scales uborns=' 0.102816912E+04'> </scales>
</event>
<event>
      4  10001  1.14524E+01  8.94427E-01  7.29735E-03  7.39978E-01
       1    -1     0     0   515     0  0.000000000E+00  0.000000000E+00  1.806479246E+03  1.806479246E+03  0.000000000E+00  0.00000E+00  9.000E+00
      21    -1     0     0   511   515  0.000000000E+00  0.000000000E+00 -1.244377803E+03  1.244377803E+03  0.000000000E+00  0.00000E+00  9.000E+00
       1     1     1     2   513     0 -6.899816483E+02  1.258318911E+03  7.227804968E+02  1.606814489E+03  2.018548058E-05  0.00000E+00  9.000E+00
      21     1     1     2   511   513  6.899816483E+02 -1.258318911E+03 -1.606790542E+02  1.444042560E+03  2.573153985E-05  0.00000E+00  9.000E+00
#rwgt            1         181   2.1529991214722681E-003        6024     4865884           0
<rwgt>
<wgt id='central'>  0.114523893E+02 </wgt>
<wgt id='sudakovwgt'>  0.271181746E+01 </wgt>
<wgt id='scales0.50.5'>  0.154700071E+02 </wgt>
<wgt id='scales0.51.0'>  0.133289222E+02 </wgt>
<wgt id='scales1.00.5'>  0.132920507E+02 </wgt>
<wgt id='scales1.02.0'>  0.996675211E+01 </wgt>
<wgt id='scales2.01.0'>  0.994944216E+01 </wgt>
<wgt id='scales2.02.0'>  0.865876355E+01 </wgt>
</rwgt>
<scales uborns=' 0.143507531E+04'> </scales>
</event>
<event>
      5  10001  2.02687E+03  1.13353E+01  7.29735E-03  1.89668E-01
       1    -1     0     0   514     0  0.000000000E+00  0.000000000E+00  2.281336497E+03  2.281336497E+03  0.000000000E+00  0.00000E+00  9.000E+00
      21    -1     0     0   513   514  0.000000000E+00  0.000000000E+00 -1.865854633E+02  1.865854633E+02  0.000000000E+00  0.00000E+00  9.000E+00
       1     1     1     2   512     0 -5.003575136E+01 -5.538736875E+02  1.541739609E+03  1.638975491E+03  0.000000000E+00  0.00000E+00  9.000E+00
      21     1     1     2   513   512  4.748773330E+01  5.730372844E+02  4.668966870E+02  7.406884166E+02  1.525878906E-05  0.00000E+00  9.000E+00
      22     1     1     2     0     0  2.548018060E+00 -1.916359686E+01  8.611473775E+01  8.825805288E+01  1.651812370E-06  0.00000E+00  9.000E+00
#rwgt            1         181   4.4311746171762150E-003        6024     4867097           0
<rwgt>
<wgt id='central'>  0.202686717E+04 </wgt>
<wgt id='sudakovwgt'>  0.475403753E-03 </wgt>
<wgt id='scales0.50.5'>  0.267035967E+04 </wgt>
<wgt id='scales0.51.0'>  0.240086500E+04 </wgt>
<wgt id='scales1.00.5'>  0.225438410E+04 </wgt>
<wgt id='scales1.02.0'>  0.183182281E+04 </wgt>
<wgt id='scales2.01.0'>  0.173476048E+04 </wgt>
<wgt id='scales2.02.0'>  0.156782320E+04 </wgt>
</rwgt>
<scales uborns=' 0.575948423E+03'> </scales>
</event>
<event>
      5  10001  3.00036E+01  8.62955E+02  7.29735E-03  9.25545E-02
       2    -1     0     0   512     0  0.000000000E+00  0.000000000E+00  3.010459238E+03  3.010459238E+03  0.000000000E+00  0.00000E+00  9.000E+00
       2    -1     0     0   511     0  0.000000000E+00  0.000000000E+00 -5.123691294E+02  5.123691294E+02  0.000000000E+00  0.00000E+00  9.000E+00
       2     1     1     2   511     0  1.185472907E+03  2.541132200E+01  1.674703383E+03  2.051980305E+03  2.157918644E-05  0.00000E+00  9.000E+00
      22     1     1     2     0     0 -9.271880272E+01  7.657487943E+01  9.989981588E+01  1.563344548E+02  3.814697266E-06  0.00000E+00  9.000E+00
       2     1     1     2   512     0 -1.092754104E+03 -1.019862014E+02  7.234869096E+02  1.314513608E+03  2.157918644E-05  0.00000E+00  9.000E+00
#rwgt            1          97   1.0858991631575545E-003        6024     4867330           0
<rwgt>
<wgt id='central'>  0.300035564E+02 </wgt>
<wgt id='sudakovwgt'>  0.708990551E-03 </wgt>
<wgt id='scales0.50.5'>  0.384648415E+02 </wgt>
<wgt id='scales0.51.0'>  0.350292673E+02 </wgt>
<wgt id='scales1.00.5'>  0.329462706E+02 </wgt>
<wgt id='scales1.02.0'>  0.274817121E+02 </wgt>
<wgt id='scales2.01.0'>  0.259963835E+02 </wgt>
<wgt id='scales2.02.0'>  0.238113135E+02 </wgt>
</rwgt>
<scales uborns=' 0.120121073E+04'> </scales>
</event>
<event>
      5  10001  5.73755E+03  1.33305E+02  7.29735E-03  1.18461E-01
      21    -1     0     0   513   511  0.000000000E+00  0.000000000E+00  1.042701321E+02  1.042701321E+02  0.000000000E+00  0.00000E+00  9.000E+00
       2    -1     0     0   512     0  0.000000000E+00  0.000000000E+00 -2.337450918E+03  2.337450918E+03  0.000000000E+00  0.00000E+00  9.000E+00
      22     1     1     2     0     0 -1.041498877E+01  1.883273734E+01 -3.292728460E+01  3.933637068E+01  4.768371582E-07  0.00000E+00  9.000E+00
      21     1     1     2   512   511  3.302651623E+02 -3.515574451E+02 -1.370557986E+03  1.452961427E+03  1.525878906E-05  0.00000E+00  9.000E+00
       2     1     1     2   513     0 -3.198501735E+02  3.327247077E+02 -8.296955158E+02  9.494232532E+02  1.525878906E-05  0.00000E+00  9.000E+00
#rwgt            1         187   6.0021069145811462E-003        6024     4868555           0
<rwgt>
<wgt id='central'>  0.573755118E+04 </wgt>
<wgt id='sudakovwgt'>  0.764637383E-03 </wgt>
<wgt id='scales0.50.5'>  0.734151909E+04 </wgt>
<wgt id='scales0.51.0'>  0.682276909E+04 </wgt>
<wgt id='scales1.00.5'>  0.617378842E+04 </wgt>
<wgt id='scales1.02.0'>  0.534205569E+04 </wgt>
<wgt id='scales2.01.0'>  0.489462842E+04 </wgt>
<wgt id='scales2.02.0'>  0.455723743E+04 </wgt>
</rwgt>
<scales uborns=' 0.482782191E+03'> </scales>
</event>
<event>
      4  10001  9.60817E+06  8.94427E-01  7.29735E-03  7.46785E-01
       1    -1     0     0   515     0  0.000000000E+00  0.000000000E+00  3.677583158E+02  3.677583158E+02  0.000000000E+00  0.00000E+00  9.000E+00
      21    -1     0     0   513   514  0.000000000E+00  0.000000000E+00 -2.586708952E+02  2.586708952E+02  0.000000000E+00  0.00000E+00  9.000E+00
       1     1     1     2   513     0  2.057001776E+01 -1.376442894E+02  3.340585942E+02  3.618897904E+02  0.000000000E+00  0.00000E+00  9.000E+00
      21     1     1     2   515   514 -2.057001776E+01  1.376442894E+02 -2.249711737E+02  2.645394205E+02  0.000000000E+00  0.00000E+00  9.000E+00
#rwgt            1         181   2.0832382169061643E-003        6024     4868780           0
<rwgt>
<wgt id='central'>  0.960817389E+07 </wgt>
<wgt id='sudakovwgt'>  0.217495416E+01 </wgt>
<wgt id='scales0.50.5'>  0.123061389E+08 </wgt>
<wgt id='scales0.51.0'>  0.118179964E+08 </wgt>
<wgt id='scales1.00.5'>  0.100050356E+08 </wgt>
<wgt id='scales1.02.0'>  0.920721247E+07 </wgt>
<wgt id='scales2.01.0'>  0.797201213E+07 </wgt>
<wgt id='scales2.02.0'>  0.763933293E+07 </wgt>
</rwgt>
<scales uborns=' 0.139172828E+03'> </scales>
</event>
<event>
      5  10001  1.72594E+03  2.59047E+00  7.29735E-03  3.17654E-01
      21    -1     0     0   511   512  0.000000000E+00  0.000000000E+00  1.294898806E+03  1.294898806E+03  0.000000000E+00  0.00000E+00  9.000E+00
       5    -1     0     0   513     0  0.000000000E+00  0.000000000E+00 -6.058969971E+02  6.058969971E+02  0.000000000E+00  0.00000E+00  9.000E+00
       5     1     1     2   511     0  3.356279074E+02 -2.905292489E+02 -2.699712103E+02  5.195553783E+02  1.078959322E-05  0.00000E+00  9.000E+00
      21     1     1     2   513   512 -4.484631434E+02  3.863265322E+02  1.051519282E+03  1.206673187E+03  1.525878906E-05  0.00000E+00  9.000E+00
      22     1     1     2     0     0  1.128352360E+02 -9.579728326E+01 -9.254626230E+01  1.745672381E+02  5.394796609E-06  0.00000E+00  9.000E+00
#rwgt            1         190   1.2318790661428413E-004        6024     4869696           0
<rwgt>
<wgt id='central'>  0.172594406E+04 </wgt>
<wgt id='sudakovwgt'>  0.303695678E-01 </wgt>
<wgt id='scales0.50.5'>  0.216422297E+04 </wgt>
<wgt id='scales0.51.0'>  0.204320590E+04 </wgt>
<wgt id='scales1.00.5'>  0.182816573E+04 </wgt>
<wgt id='scales1.02.0'>  0.162080508E+04 </wgt>
<wgt id='scales2.01.0'>  0.147793112E+04 </wgt>
<wgt id='scales2.02.0'>  0.138790356E+04 </wgt>
</rwgt>
<scales uborns=' 0.591922145E+03'> </scales>
</event>
<event>
      5  10001  1.19670E+01  1.80232E+01  7.29735E-03  1.70186E-01
       2    -1     0     0   515     0  0.000000000E+00  0.000000000E+00  2.356466542E+03  2.356466542E+03  0.000000000E+00  0.00000E+00  9.000E+00
      21    -1     0     0   514   511  0.000000000E+00  0.000000000E+00 -1.293465977E+03  1.293465977E+03  0.000000000E+00  0.00000E+00  9.000E+00
       2     1     1     2   514     0  8.349999388E+02  7.716154267E+02  1.288969327E+03  1.718737091E+03  4.037096117E-05  0.00000E+00  9.000E+00
      21     1     1     2   515   511 -1.049816551E+03 -9.608010588E+02 -5.253534587E+02  1.516987054E+03  3.325575976E-05  0.00000E+00  9.000E+00
      22     1     1     2     0     0  2.148166120E+02  1.891856321E+02  2.993846973E+02  4.142083741E+02  1.078959322E-05  0.00000E+00  9.000E+00
#rwgt            1         182   7.2731783174883975E-003        6024     4870133           0
<rwgt>
<wgt id='central'>  0.119669691E+02 </wgt>
<wgt id='sudakovwgt'>  0.134058787E-02 </wgt>
<wgt id='scales0.50.5'>  0.162436972E+02 </wgt>
<wgt id='scales0.51.0'>  0.139298258E+02 </wgt>
<wgt id='scales1.00.5'>  0.139548281E+02 </wgt>
<wgt id='scales1.02.0'>  0.103711179E+02 </wgt>
<wgt id='scales2.01.0'>  0.103952397E+02 </wgt>
<wgt id='scales2.02.0'>  0.900896266E+01 </wgt>
</rwgt>
<scales uborns=' 0.142326978E+04'> </scales>
</event>
<event>
      5  10001  9.58402E+01  4.47067E+01  7.29735E-03  1.41906E-01
      21    -1     0     0   512   513  0.000000000E+00  0.000000000E+00  3.785968478E+02  3.785968478E+02  0.000000000E+00  0.00000E+00  9.000E+00
       2    -1     0     0   514     0  0.000000000E+00  0.000000000E+00 -3.111728806E+03  3.111728806E+03  0.000000000E+00  0.00000E+00  9.000E+00
       2     1     1     2   512     0 -2.393197429E+02  9.675281737E+02 -1.559798253E+03  1.851041679E+03  2.157918644E-05  0.00000E+00  9.000E+00
      21     1     1     2   514   513  2.130829709E+02 -9.313298532E+02 -7.526968611E+02  1.216278016E+03  1.868812365E-05  0.00000E+00  9.000E+00
      22     1     1     2     0     0  2.623677199E+01 -3.619832047E+01 -4.206368437E+02  4.230059585E+02  0.000000000E+00  0.00000E+00  9.000E+00
#rwgt            1         187   1.2721372563356061E-002        6024     4874289           0
<rwgt>
<wgt id='central'>  0.958401750E+02 </wgt>
<wgt id='sudakovwgt'>  0.379996568E-01 </wgt>
<wgt id='scales0.50.5'>  0.126850727E+03 </wgt>
<wgt id='scales0.51.0'>  0.112322790E+03 </wgt>
<wgt id='scales1.00.5'>  0.108236263E+03 </wgt>
<wgt id='scales1.02.0'>  0.854954794E+02 </wgt>
<wgt id='scales2.01.0'>  0.827695049E+02 </wgt>
<wgt id='scales2.02.0'>  0.738355983E+02 </wgt>
</rwgt>
<scales uborns=' 0.975798398E+03'> </scales>
</event>
<event>
      5  10001  1.42114E+04  3.10928E+02  7.29735E-03  1.05089E-01
       2    -1     0     0   515     0  0.000000000E+00  0.000000000E+00  1.117297242E+03  1.117297242E+03  0.000000000E+00  0.00000E+00  9.000E+00
      21    -1     0     0   511   512  0.000000000E+00  0.000000000E+00 -2.001294487E+03  2.001294487E+03  0.000000000E+00  0.00000E+00  9.000E+00
       2     1     1     2   511     0 -2.477179063E+02 -1.767258367E+02  4.613017500E+02  5.526259919E+02  5.394796609E-06  0.00000E+00  9.000E+00
      21     1     1     2   515   512  2.206402296E+02  3.458772870E+02 -1.921515501E+03  1.964824427E+03  3.051757812E-05  0.00000E+00  9.000E+00
      22     1     1     2     0     0  2.707767661E+01 -1.691514503E+02  5.762165053E+02  6.011413101E+02  1.321449896E-05  0.00000E+00  9.000E+00
#rwgt            1         182   2.9510182480232522E-003        6024     4875041           0
<rwgt>
<wgt id='central'>  0.142113897E+05 </wgt>
<wgt id='sudakovwgt'>  0.107967654E+00 </wgt>
<wgt id='scales0.50.5'>  0.200638893E+05 </wgt>
<wgt id='scales0.51.0'>  0.169591981E+05 </wgt>
<wgt id='scales1.00.5'>  0.168130565E+05 </wgt>
<wgt id='scales1.02.0'>  0.121692684E+05 </wgt>
<wgt id='scales2.01.0'>  0.120878064E+05 </wgt>
<wgt id='scales2.02.0'>  0.103508282E+05 </wgt>
</rwgt>
<scales uborns=' 0.414262680E+03'> </scales>
</event>
<event>
      5  10001  1.25065E+03  7.36345E+01  7.29735E-03  1.30117E-01
       2    -1     0     0   513     0  0.000000000E+00  0.000000000E+00  1.170788424E+03  1.170788424E+03  0.000000000E+00  0.00000E+00  9.000E+00
      -3    -1     0     0     0   513  0.000000000E+00  0.000000000E+00 -3.583923372E+02  3.583923372E+02  0.000000000E+00  0.00000E+00  9.000E+00
       2     1     1     2   514     0 -8.183026747E+01 -5.879271680E+02  2.592981302E+02  6.477577232E+02  1.375408659E-05  0.00000E+00  9.000E+00
      -3     1     1     2     0   514  8.525208653E+01  6.006519463E+02  5.875417311E+02  8.445448269E+02  1.705984480E-05  0.00000E+00  9.000E+00
      22     1     1     2     0     0 -3.421819058E+00 -1.272477827E+01 -3.444377473E+01  3.687821098E+01  0.000000000E+00  0.00000E+00  9.000E+00
#rwgt            1         146   6.3296641208735236E-005        6024     4876143           0
<rwgt>
<wgt id='central'>  0.125065440E+04 </wgt>
<wgt id='sudakovwgt'>  0.117881759E+00 </wgt>
<wgt id='scales0.50.5'>  0.153527854E+04 </wgt>
<wgt id='scales0.51.0'>  0.147881852E+04 </wgt>
<wgt id='scales1.00.5'>  0.129839874E+04 </wgt>
<wgt id='scales1.02.0'>  0.120416581E+04 </wgt>
<wgt id='scales2.01.0'>  0.107199193E+04 </wgt>
<wgt id='scales2.02.0'>  0.103214811E+04 </wgt>
</rwgt>
<scales uborns=' 0.625344206E+03'> </scales>
</event>
<event>
      5  10001  1.22570E+02  1.30333E+02  7.29735E-03  1.18865E-01
       2    -1     0     0   513     0  0.000000000E+00  0.000000000E+00  1.966934793E+03  1.966934793E+03  0.000000000E+00  0.00000E+00  9.000E+00
      21    -1     0     0   512   513  0.000000000E+00  0.000000000E+00 -7.891186106E+02  7.891186106E+02  0.000000000E+00  0.00000E+00  9.000E+00
      22     1     1     2     0     0  1.193009878E+02  2.110624075E+02  3.512709731E+02  4.268153724E+02  7.629394531E-06  0.00000E+00  9.000E+00
      21     1     1     2   512   511 -5.420833257E+02 -7.600785657E+02 -3.222531974E+02  9.876339814E+02  2.054277346E-05  0.00000E+00  9.000E+00
       2     1     1     2   511     0  4.227823379E+02  5.490161582E+02  1.148798406E+03  1.341604049E+03  1.525878906E-05  0.00000E+00  9.000E+00
#rwgt            1         182   8.5691303942739341E-003        6024     4877837           0
<rwgt>
<wgt id='central'>  0.122570399E+03 </wgt>
<wgt id='sudakovwgt'>  0.558004623E-03 </wgt>
<wgt id='scales0.50.5'>  0.163459188E+03 </wgt>
<wgt id='scales0.51.0'>  0.143767822E+03 </wgt>
<wgt id='scales1.00.5'>  0.139357976E+03 </wgt>
<wgt id='scales1.02.0'>  0.108715810E+03 </wgt>
<wgt id='scales2.01.0'>  0.105779869E+03 </wgt>
<wgt id='scales2.02.0'>  0.938234815E+02 </wgt>
</rwgt>
<scales uborns=' 0.934412731E+03'> </scales>
</event>
<event>
      5  10001  2.08430E+04  1.12552E+01  7.29735E-03  1.90002E-01
       2    -1     0     0   513     0  0.000000000E+00  0.000000000E+00  1.447912245E+03  1.447912245E+03  0.000000000E+00  0.00000E+00  9.000E+00
      21    -1     0     0   511   513  0.000000000E+00  0.000000000E+00 -4.524865245E+02  4.524865245E+02  0.000000000E+00  0.00000E+00  9.000E+00
       2     1     1     2   514     0 -1.960926462E+02 -2.999957153E+02  1.215418896E+03  1.267159362E+03  2.642899792E-05  0.00000E+00  9.000E+00
      21     1     1     2   511   514  2.210472379E+02  3.191170801E+02 -3.357742867E+02  5.132659776E+02  1.144409180E-05  0.00000E+00  9.000E+00
      22     1     1     2     0     0 -2.495459168E+01 -1.912136477E+01  1.157811116E+02  1.199734306E+02  0.000000000E+00  0.00000E+00  9.000E+00
#rwgt            1         182   9.3403601967593300E-003        6024     4879034           0
<rwgt>
<wgt id='central'>  0.208429760E+05 </wgt>
<wgt id='sudakovwgt'>  0.127019523E-02 </wgt>
<wgt id='scales0.50.5'>  0.275941847E+05 </wgt>
<wgt id='scales0.51.0'>  0.249111828E+05 </wgt>
<wgt id='scales1.00.5'>  0.230878475E+05 </wgt>
<wgt id='scales1.02.0'>  0.189309820E+05 </wgt>
<wgt id='scales2.01.0'>  0.177058131E+05 </wgt>
<wgt id='scales2.02.0'>  0.160815827E+05 </wgt>
</rwgt>
<scales uborns=' 0.388397413E+03'> </scales>
</event>
<event>
      5  10001  7.95255E+03  1.94560E+01  7.29735E-03  1.67363E-01
       2    -1     0     0   513     0  0.000000000E+00  0.000000000E+00  2.879751683E+03  2.879751683E+03  0.000000000E+00  0.00000E+00  9.000E+00
       2    -1     0     0   512     0  0.000000000E+00  0.000000000E+00 -3.757181311E+02  3.757181311E+02  0.000000000E+00  0.00000E+00  9.000E+00
       2     1     1     2   512     0  4.498557571E+02  7.338153485E+01  2.707972298E+03  2.746064278E+03  3.051757812E-05  0.00000E+00  9.000E+00
       2     1     1     2   513     0 -4.221248038E+02 -6.130575385E+01 -2.143958710E+02  4.774026968E+02  1.684524701E-05  0.00000E+00  9.000E+00
      22     1     1     2     0     0 -2.773095335E+01 -1.207578100E+01  1.045712469E+01  3.200283920E+01  8.172577143E-07  0.00000E+00  9.000E+00
#rwgt            1          97   9.9578062977885833E-004        6024     4883304           0
<rwgt>
<wgt id='central'>  0.795255440E+04 </wgt>
<wgt id='sudakovwgt'>  0.208112289E-02 </wgt>
<wgt id='scales0.50.5'>  0.103939816E+05 </wgt>
<wgt id='scales0.51.0'>  0.946860909E+04 </wgt>
<wgt id='scales1.00.5'>  0.872975724E+04 </wgt>
<wgt id='scales1.02.0'>  0.728812008E+04 </wgt>
<wgt id='scales2.01.0'>  0.677708601E+04 </wgt>
<wgt id='scales2.02.0'>  0.621086527E+04 </wgt>
</rwgt>
<scales uborns=' 0.456872811E+03'> </scales>
</event>
<event>
      5  10001  1.14507E+04  4.75550E+00  7.29735E-03  2.46936E-01
      21    -1     0     0   511   512  0.000000000E+00  0.000000000E+00  1.173743544E+02  1.173743544E+02  0.000000000E+00  0.00000E+00  9.000E+00
       2    -1     0     0   514     0  0.000000000E+00  0.000000000E+00 -1.593044081E+03  1.593044081E+03  0.000000000E+00  0.00000E+00  9.000E+00
       2     1     1     2   511     0 -3.427401823E+02  2.595535527E+02 -7.086396227E+02  8.288600571E+02  1.321449896E-05  0.00000E+00  9.000E+00
      21     1     1     2   514   512  3.393905392E+02 -2.629291574E+02 -7.536152344E+02  8.673255452E+02  1.525878906E-05  0.00000E+00  9.000E+00
      22     1     1     2     0     0  3.349643159E+00  3.375604612E+00 -1.341486944E+01  1.423283309E+01  1.685873940E-07  0.00000E+00  9.000E+00
#rwgt            1         187   7.8494405730569674E-003        6024     4920437           0
<rwgt>
<wgt id='central'>  0.114507470E+05 </wgt>
<wgt id='sudakovwgt'>  0.768462932E-01 </wgt>
<wgt id='scales0.50.5'>  0.144243798E+05 </wgt>
<wgt id='scales0.51.0'>  0.136530550E+05 </wgt>
<wgt id='scales1.00.5'>  0.120976035E+05 </wgt>
<wgt id='scales1.02.0'>  0.108397537E+05 </wgt>
<wgt id='scales2.01.0'>  0.974657612E+04 </wgt>
<wgt id='scales2.02.0'>  0.922655249E+04 </wgt>
</rwgt>
<scales uborns=' 0.429619057E+03'> </scales>
</event>
<event>
      5  10001  2.39499E+02  2.55682E+02  7.29735E-03  1.07898E-01
       2    -1     0     0   515     0  0.000000000E+00  0.000000000E+00  7.536080765E+02  7.536080765E+02  0.000000000E+00  0.00000E+00  9.000E+00
      21    -1     0     0   513   511  0.000000000E+00  0.000000000E+00 -9.388789405E+02  9.388789405E+02  0.000000000E+00  0.00000E+00  9.000E+00
      22     1     1     2     0     0 -3.011999184E+02  8.914202923E+01  4.408063838E+01  3.171920474E+02  8.543240007E-06  0.00000E+00  9.000E+00
      21     1     1     2   515   511  8.193985678E+02  6.224588054E+00 -2.194585525E+02  8.483011344E+02  1.727177646E-05  0.00000E+00  9.000E+00
       2     1     1     2   513     0 -5.181986494E+02 -9.536661728E+01 -9.892949800E+00  5.269938352E+02  9.066178008E-06  0.00000E+00  9.000E+00
#rwgt            1         182   2.8384683517460882E-003        6024     4922100           0
<rwgt>
<wgt id='central'>  0.239498902E+03 </wgt>
<wgt id='sudakovwgt'>  0.594842865E-03 </wgt>
<wgt id='scales0.50.5'>  0.310978425E+03 </wgt>
<wgt id='scales0.51.0'>  0.281556651E+03 </wgt>
<wgt id='scales1.00.5'>  0.264525883E+03 </wgt>
<wgt id='scales1.02.0'>  0.218185928E+03 </wgt>
<wgt id='scales2.01.0'>  0.206294104E+03 </wgt>
<wgt id='scales2.02.0'>  0.187935944E+03 </wgt>
</rwgt>
<scales uborns=' 0.831177826E+03'> </scales>
</event>
<event>
      5  10001  1.23040E+03  1.24671E+02  7.29735E-03  1.19668E-01
       1    -1     0     0   511     0  0.000000000E+00  0.000000000E+00  7.690219535E+02  7.690219535E+02  0.000000000E+00  0.00000E+00  9.000E+00
       2    -1     0     0   512     0  0.000000000E+00  0.000000000E+00 -1.807013416E+03  1.807013416E+03  0.000000000E+00  0.00000E+00  9.000E+00
       1     1     1     2   512     0 -5.845730688E+02 -5.450963676E+01  5.093532374E+02  7.772629502E+02  1.789251617E-05  0.00000E+00  9.000E+00
       2     1     1     2   511     0  6.527206706E+02  1.589070674E+02 -8.163576999E+02  1.057230166E+03  2.157918644E-05  0.00000E+00  9.000E+00
      22     1     1     2     0     0 -6.814760174E+01 -1.043974307E+02 -7.309869999E+02  7.415422531E+02  1.078959322E-05  0.00000E+00  9.000E+00
#rwgt            1          96   1.3401216356806664E-003        6024     4922485           0
<rwgt>
<wgt id='central'>  0.123039817E+04 </wgt>
<wgt id='sudakovwgt'>  0.265676270E-01 </wgt>
<wgt id='scales0.50.5'>  0.155020257E+04 </wgt>
<wgt id='scales0.51.0'>  0.145478849E+04 </wgt>
<wgt id='scales1.00.5'>  0.131109729E+04 </wgt>
<wgt id='scales1.02.0'>  0.115851029E+04 </wgt>
<wgt id='scales2.01.0'>  0.105468699E+04 </wgt>
<wgt id='scales2.02.0'>  0.993063823E+03 </wgt>
</rwgt>
<scales uborns=' 0.627090236E+03'> </scales>
</event>
<event>
      5  10001  2.35768E+03  3.81248E+01  7.29735E-03  1.46145E-01
      21    -1     0     0   513   512  0.000000000E+00  0.000000000E+00  1.361470685E+02  1.361470685E+02  0.000000000E+00  0.00000E+00  9.000E+00
       2    -1     0     0   514     0  0.000000000E+00  0.000000000E+00 -2.892401784E+03  2.892401784E+03  0.000000000E+00  0.00000E+00  9.000E+00
       2     1     1     2   513     0  3.072437922E+02  4.926258531E+02 -1.594050009E+03  1.696488848E+03  0.000000000E+00  0.00000E+00  9.000E+00
      21     1     1     2   514   512 -2.838473011E+02 -4.625242823E+02 -7.931025117E+02  9.609940666E+02  2.157918644E-05  0.00000E+00  9.000E+00
      22     1     1     2     0     0 -2.339649111E+01 -3.010157078E+01 -3.691021940E+02  3.710659375E+02  5.394796609E-06  0.00000E+00  9.000E+00
#rwgt            1         187   1.5829714579712044E-002        6024     4926766           0
<rwgt>
<wgt id='central'>  0.235767994E+04 </wgt>
<wgt id='sudakovwgt'>  0.298626727E-01 </wgt>
<wgt id='scales0.50.5'>  0.304781466E+04 </wgt>
<wgt id='scales0.51.0'>  0.279427007E+04 </wgt>
<wgt id='scales1.00.5'>  0.257160958E+04 </wgt>
<wgt id='scales1.02.0'>  0.216889354E+04 </wgt>
<wgt id='scales2.01.0'>  0.201695072E+04 </wgt>
<wgt id='scales2.02.0'>  0.185544747E+04 </wgt>
</rwgt>
<scales uborns=' 0.561331209E+03'> </scales>
</event>
<event>
      5  10001  1.32622E+03  1.86018E+01  7.29735E-03  1.69008E-01
      21    -1     0     0   511   515  0.000000000E+00  0.000000000E+00  4.982951039E+02  4.982951039E+02  0.000000000E+00  0.00000E+00  9.000E+00
       3    -1     0     0   512     0  0.000000000E+00  0.000000000E+00 -8.039028543E+02  8.039028543E+02  0.000000000E+00  0.00000E+00  9.000E+00
       3     1     1     2   511     0  7.751588136E+01 -5.002693299E+02 -2.190402476E+02  5.515947283E+02  7.629394531E-06  0.00000E+00  9.000E+00
      21     1     1     2   512   515 -9.258964523E+01  6.115657418E+02 -1.755909112E+01  6.187841471E+02  1.410503336E-06  0.00000E+00  9.000E+00
      22     1     1     2     0     0  1.507376387E+01 -1.112964120E+02 -6.900841164E+01  1.318190827E+02  2.697398305E-06  0.00000E+00  9.000E+00
#rwgt            1         188   4.5820489490332910E-004        6024     4927251           0
<rwgt>
<wgt id='central'>  0.132621707E+04 </wgt>
<wgt id='sudakovwgt'>  0.251341904E-01 </wgt>
<wgt id='scales0.50.5'>  0.170697307E+04 </wgt>
<wgt id='scales0.51.0'>  0.156850759E+04 </wgt>
<wgt id='scales1.00.5'>  0.144329670E+04 </wgt>
<wgt id='scales1.02.0'>  0.122297611E+04 </wgt>
<wgt id='scales2.01.0'>  0.113656381E+04 </wgt>
<wgt id='scales2.02.0'>  0.104808432E+04 </wgt>
</rwgt>
<scales uborns=' 0.619113344E+03'> </scales>
</event>
<event>
      5  10001  1.44970E+01  1.53788E+01  7.29735E-03  1.76369E-01
       1    -1     0     0   511     0  0.000000000E+00  0.000000000E+00  1.122589459E+03  1.122589459E+03  0.000000000E+00  0.00000E+00  9.000E+00
       1    -1     0     0   513     0  0.000000000E+00  0.000000000E+00 -1.710378160E+03  1.710378160E+03  0.000000000E+00  0.00000E+00  9.000E+00
       1     1     1     2   513     0 -1.286377602E+03 -4.697987112E+02 -2.531896055E+02  1.392689176E+03  2.816166508E-05  0.00000E+00  9.000E+00
       1     1     1     2   511     0  1.288541354E+03  4.850244981E+02 -3.100062020E+02  1.411272982E+03  4.298945492E-05  0.00000E+00  9.000E+00
      22     1     1     2     0     0 -2.163752022E+00 -1.522578683E+01 -2.459289319E+01  2.900546160E+01  3.371747881E-07  0.00000E+00  9.000E+00
#rwgt            1          91   3.8239236479444282E-004        6024     4927652           0
<rwgt>
<wgt id='central'>  0.144970455E+02 </wgt>
<wgt id='sudakovwgt'>  0.322876911E-01 </wgt>
<wgt id='scales0.50.5'>  0.186822467E+02 </wgt>
<wgt id='scales0.51.0'>  0.168852924E+02 </wgt>
<wgt id='scales1.00.5'>  0.160397892E+02 </wgt>
<wgt id='scales1.02.0'>  0.131830227E+02 </wgt>
<wgt id='scales2.01.0'>  0.125862419E+02 </wgt>
<wgt id='scales2.02.0'>  0.114454517E+02 </wgt>
</rwgt>
<scales uborns=' 0.137312066E+04'> </scales>
</event>
<event>
      5  10001  2.64994E+06  1.85725E+01  7.29735E-03  1.69067E-01
      -2    -1     0     0     0   512  0.000000000E+00  0.000000000E+00  6.841767268E+02  6.841767268E+02  0.000000000E+00  0.00000E+00  9.000E+00
      21    -1     0     0   514   511  0.000000000E+00  0.000000000E+00 -4.077767008E+02  4.077767008E+02  0.000000000E+00  0.00000E+00  9.000E+00
      -2     1     1     2     0   511 -1.034060395E+01  1.782532647E+02  4.945729964E+02  5.258170815E+02  7.629394531E-06  0.00000E+00  9.000E+00
      21     1     1     2   514   512 -4.305692502E+00 -1.668329853E+02 -3.738219429E+02  4.093832300E+02  7.629394531E-06  0.00000E+00  9.000E+00
      22     1     1     2     0     0  1.464629645E+01 -1.142027940E+01  1.556489726E+02  1.567531162E+02  0.000000000E+00  0.00000E+00  9.000E+00
#rwgt            1         192   1.0115527078782098E-003        6024     4930559           0
<rwgt>
<wgt id='central'>  0.264993855E+07 </wgt>
<wgt id='sudakovwgt'>  0.272150097E-01 </wgt>
<wgt id='scales0.50.5'>  0.350363718E+07 </wgt>
<wgt id='scales0.51.0'>  0.323738379E+07 </wgt>
<wgt id='scales1.00.5'>  0.286788002E+07 </wgt>
<wgt id='scales1.02.0'>  0.245543117E+07 </wgt>
<wgt id='scales2.01.0'>  0.221080553E+07 </wgt>
<wgt id='scales2.02.0'>  0.204852971E+07 </wgt>
</rwgt>
<scales uborns=' 0.172555833E+03'> </scales>
</event>
<event>
      5  10001  2.24710E+03  1.52707E+01  7.29735E-03  1.76655E-01
       2    -1     0     0   511     0  0.000000000E+00  0.000000000E+00  2.155636453E+03  2.155636453E+03  0.000000000E+00  0.00000E+00  9.000E+00
      21    -1     0     0   515   511  0.000000000E+00  0.000000000E+00 -1.612122653E+02  1.612122653E+02  0.000000000E+00  0.00000E+00  9.000E+00
       2     1     1     2   513     0 -4.095500086E+02  2.831718498E+02  1.147857638E+03  1.251197291E+03  1.525878906E-05  0.00000E+00  9.000E+00
      21     1     1     2   515   513  4.570645139E+02 -3.325871869E+02  6.721192076E+02  8.782177611E+02  1.078959322E-05  0.00000E+00  9.000E+00
      22     1     1     2     0     0 -4.751450529E+01  4.941533708E+01  1.744473424E+02  1.874336656E+02  1.907348633E-06  0.00000E+00  9.000E+00
#rwgt            1         182   1.3415942494805105E-002        6024     4931370           0
<rwgt>
<wgt id='central'>  0.224710310E+04 </wgt>
<wgt id='sudakovwgt'>  0.730623965E-03 </wgt>
<wgt id='scales0.50.5'>  0.289383151E+04 </wgt>
<wgt id='scales0.51.0'>  0.266274135E+04 </wgt>
<wgt id='scales1.00.5'>  0.244211808E+04 </wgt>
<wgt id='scales1.02.0'>  0.207416637E+04 </wgt>
<wgt id='scales2.01.0'>  0.192263791E+04 </wgt>
<wgt id='scales2.02.0'>  0.177467442E+04 </wgt>
</rwgt>
<scales uborns=' 0.565933235E+03'> </scales>
</event>
<event>
      5  10001  1.83327E+03  1.17281E+02  7.29735E-03  1.20792E-01
       2    -1     0     0   513     0  0.000000000E+00  0.000000000E+00  3.027461994E+03  3.027461994E+03  0.000000000E+00  0.00000E+00  9.000E+00
      21    -1     0     0   512   511  0.000000000E+00  0.000000000E+00 -1.901454258E+02  1.901454258E+02  0.000000000E+00  0.00000E+00  9.000E+00
      22     1     1     2     0     0 -2.433498734E+01  1.623874105E+00  1.110748706E+02  1.137209543E+02  1.348699152E-06  0.00000E+00  9.000E+00
      21     1     1     2   513   511  5.669605106E+02 -1.470148360E+02  3.963170177E+02  7.071949951E+02  1.078959322E-05  0.00000E+00  9.000E+00
       2     1     1     2   512     0 -5.426255233E+02  1.453909619E+02  2.329924680E+03  2.396691470E+03  0.000000000E+00  0.00000E+00  9.000E+00
#rwgt            1         182   1.5006486707477531E-002        6024     4934640           0
<rwgt>
<wgt id='central'>  0.183327468E+04 </wgt>
<wgt id='sudakovwgt'>  0.516514959E-01 </wgt>
<wgt id='scales0.50.5'>  0.242831232E+04 </wgt>
<wgt id='scales0.51.0'>  0.217074378E+04 </wgt>
<wgt id='scales1.00.5'>  0.205079575E+04 </wgt>
<wgt id='scales1.02.0'>  0.164837738E+04 </wgt>
<wgt id='scales2.01.0'>  0.156954730E+04 </wgt>
<wgt id='scales2.02.0'>  0.141125216E+04 </wgt>
</rwgt>
<scales uborns=' 0.585872528E+03'> </scales>
</event>
<event>
      4  10001  2.10453E+07  8.94427E-01  7.29735E-03  7.48751E-01
       1    -1     0     0   511     0  0.000000000E+00  0.000000000E+00  3.690251917E+02  3.690251917E+02  0.000000000E+00  0.00000E+00  9.000E+00
      21    -1     0     0   515   511  0.000000000E+00  0.000000000E+00 -1.913687536E+02  1.913687536E+02  0.000000000E+00  0.00000E+00  9.000E+00
       1     1     1     2   514     0 -1.071851429E+02  5.849381260E+01  3.376941037E+02  3.590925906E+02  3.814697266E-06  0.00000E+00  9.000E+00
      21     1     1     2   515   514  1.071851429E+02 -5.849381260E+01 -1.600376656E+02  2.013013547E+02  1.907348633E-06  0.00000E+00  9.000E+00
#rwgt            1         181   2.2706933227218309E-003        6024     4935789           0
<rwgt>
<wgt id='central'>  0.210453485E+08 </wgt>
<wgt id='sudakovwgt'>  0.130641641E+01 </wgt>
<wgt id='scales0.50.5'>  0.266514761E+08 </wgt>
<wgt id='scales0.51.0'>  0.259988170E+08 </wgt>
<wgt id='scales1.00.5'>  0.215736090E+08 </wgt>
<wgt id='scales1.02.0'>  0.204326979E+08 </wgt>
<wgt id='scales2.01.0'>  0.174002458E+08 </wgt>
<wgt id='scales2.02.0'>  0.168937466E+08 </wgt>
</rwgt>
<scales uborns=' 0.122107252E+03'> </scales>
</event>
<event>
      5  10001  5.19320E+02  2.28570E+01  7.29735E-03  1.61722E-01
      21    -1     0     0   513   514  0.000000000E+00  0.000000000E+00  4.283562109E+02  4.283562109E+02  0.000000000E+00  0.00000E+00  9.000E+00
       2    -1     0     0   514     0  0.000000000E+00  0.000000000E+00 -3.069900673E+03  3.069900673E+03  0.000000000E+00  0.00000E+00  9.000E+00
       2     1     1     2   512     0 -4.763191670E+02  4.819275651E+02 -2.550974097E+03  2.639432320E+03  5.285799584E-05  0.00000E+00  9.000E+00
      21     1     1     2   513   512  4.989981475E+02 -5.269688720E+02  3.183767286E+01  7.264358063E+02  7.943311333E-06  0.00000E+00  9.000E+00
      22     1     1     2     0     0 -2.267898044E+01  4.504130689E+01 -1.224080372E+02  1.323887573E+02  1.348699152E-06  0.00000E+00  9.000E+00
#rwgt            1         187   1.7723002358929457E-002        6024     4936578           0
<rwgt>
<wgt id='central'>  0.519320084E+03 </wgt>
<wgt id='sudakovwgt'>  0.125716440E+00 </wgt>
<wgt id='scales0.50.5'>  0.703612404E+03 </wgt>
<wgt id='scales0.51.0'>  0.612151354E+03 </wgt>
<wgt id='scales1.00.5'>  0.596911191E+03 </wgt>
<wgt id='scales1.02.0'>  0.455913518E+03 </wgt>
<wgt id='scales2.01.0'>  0.446308008E+03 </wgt>
<wgt id='scales2.02.0'>  0.391815940E+03 </wgt>
</rwgt>
<scales uborns=' 0.727026623E+03'> </scales>
</event>
<event>
      5  10001  7.05319E+00  2.35482E+03  7.29735E-03  8.28709E-02
       5    -1     0     0   512     0  0.000000000E+00  0.000000000E+00  1.423556224E+03  1.423556224E+03  0.000000000E+00  0.00000E+00  9.000E+00
       2    -1     0     0   511     0  0.000000000E+00  0.000000000E+00 -2.313386857E+03  2.313386857E+03  0.000000000E+00  0.00000E+00  9.000E+00
       5     1     1     2   511     0 -1.346736809E+02 -5.481099336E+02 -7.685590802E+02  9.535431608E+02  2.412626389E-05  0.00000E+00  9.000E+00
       2     1     1     2   512     0 -1.632920253E+02  1.198077455E+03 -1.056822417E+03  1.605903949E+03  3.051757812E-05  0.00000E+00  9.000E+00
      22     1     1     2     0     0  2.979657062E+02 -6.499675213E+02  9.355508646E+02  1.177495971E+03  1.078959322E-05  0.00000E+00  9.000E+00
#rwgt            1         100   7.1151843445778115E-005        6024     4938138           0
<rwgt>
<wgt id='central'>  0.705318942E+01 </wgt>
<wgt id='sudakovwgt'>  0.265254064E-01 </wgt>
<wgt id='scales0.50.5'>  0.875059570E+01 </wgt>
<wgt id='scales0.51.0'>  0.819599149E+01 </wgt>
<wgt id='scales1.00.5'>  0.753046342E+01 </wgt>
<wgt id='scales1.02.0'>  0.659580090E+01 </wgt>
<wgt id='scales2.01.0'>  0.613582788E+01 </wgt>
<wgt id='scales2.02.0'>  0.573792838E+01 </wgt>
</rwgt>
<scales uborns=' 0.157368290E+04'> </scales>
</event>
<event>
      5  10001  5.67150E+01  6.39775E+00  7.29735E-03  2.21227E-01
      -3    -1     0     0     0   513  0.000000000E+00  0.000000000E+00  1.281405641E+03  1.281405641E+03  0.000000000E+00  0.00000E+00  9.000E+00
      21    -1     0     0   514   512  0.000000000E+00  0.000000000E+00 -1.137469445E+03  1.137469445E+03  0.000000000E+00  0.00000E+00  9.000E+00
      22     1     1     2     0     0  5.286168658E+02  5.343139925E+02 -3.448285644E+02  8.269425447E+02  6.607249480E-06  0.00000E+00  9.000E+00
      21     1     1     2   514   513 -7.502522726E+02 -7.643816550E+02  6.300496234E+02  1.242626378E+03  2.750817318E-05  0.00000E+00  9.000E+00
      -3     1     1     2     0   512  2.216354068E+02  2.300676625E+02 -1.412848635E+02  3.493061630E+02  1.907348633E-06  0.00000E+00  9.000E+00
#rwgt            1         193   3.1735685663660012E-005        6024     4938338           0
<rwgt>
<wgt id='central'>  0.567149905E+02 </wgt>
<wgt id='sudakovwgt'>  0.378083073E-01 </wgt>
<wgt id='scales0.50.5'>  0.755537615E+02 </wgt>
<wgt id='scales0.51.0'>  0.663533122E+02 </wgt>
<wgt id='scales1.00.5'>  0.645790156E+02 </wgt>
<wgt id='scales1.02.0'>  0.501841894E+02 </wgt>
<wgt id='scales2.01.0'>  0.490527976E+02 </wgt>
<wgt id='scales2.02.0'>  0.434043001E+02 </wgt>
</rwgt>
<scales uborns=' 0.107107234E+04'> </scales>
</event>
<event>
      5  10001  3.83299E+05  6.31712E+00  7.29735E-03  2.22053E-01
      21    -1     0     0   511   515  0.000000000E+00  0.000000000E+00  5.536430469E+01  5.536430469E+01  0.000000000E+00  0.00000E+00  9.000E+00
       2    -1     0     0   513     0  0.000000000E+00  0.000000000E+00 -1.183123338E+03  1.183123338E+03  0.000000000E+00  0.00000E+00  9.000E+00
       2     1     1     2   511     0 -7.643932520E+01 -2.227147464E+02 -3.605139621E+02  4.305985898E+02  3.814697266E-06  0.00000E+00  9.000E+00
      21     1     1     2   513   515  7.601890570E+01  2.290178653E+02 -7.015265096E+02  7.418675760E+02  1.078959322E-05  0.00000E+00  9.000E+00
      22     1     1     2     0     0  4.204195083E-01 -6.303118888E+00 -6.571856152E+01  6.602147672E+01  0.000000000E+00  0.00000E+00  9.000E+00
#rwgt            1         187   3.4995626858297319E-003        6024     4938675           0
<rwgt>
<wgt id='central'>  0.383299151E+06 </wgt>
<wgt id='sudakovwgt'>  0.110057164E+00 </wgt>
<wgt id='scales0.50.5'>  0.468441606E+06 </wgt>
<wgt id='scales0.51.0'>  0.463902684E+06 </wgt>
<wgt id='scales1.00.5'>  0.387049278E+06 </wgt>
<wgt id='scales1.02.0'>  0.377359099E+06 </wgt>
<wgt id='scales2.01.0'>  0.322240035E+06 </wgt>
<wgt id='scales2.02.0'>  0.317246352E+06 </wgt>
</rwgt>
<scales uborns=' 0.238366562E+03'> </scales>
</event>
<event>
      4  10001  2.45542E+03  8.94427E-01  7.29735E-03  7.29479E-01
      21    -1     0     0   514   513  0.000000000E+00  0.000000000E+00  7.779660976E+02  7.779660976E+02  0.000000000E+00  0.00000E+00  9.000E+00
      -1    -1     0     0     0   512  0.000000000E+00  0.000000000E+00 -4.042028637E+02  4.042028637E+02  0.000000000E+00  0.00000E+00  9.000E+00
      -1     1     1     2     0   513  2.107010083E+02  5.161181540E+02  1.229102315E+02  5.708588169E+02  6.325959759E-06  0.00000E+00  9.000E+00
      21     1     1     2   514   512 -2.107010083E+02 -5.161181540E+02  2.508530023E+02  6.113101443E+02  1.112165812E-05  0.00000E+00  9.000E+00
#rwgt            1         196   5.9248739366334828E-004        6024     4939695           0
<rwgt>
<wgt id='central'>  0.245541947E+04 </wgt>
<wgt id='sudakovwgt'>  0.267289157E+01 </wgt>
<wgt id='scales0.50.5'>  0.319105272E+04 </wgt>
<wgt id='scales0.51.0'>  0.291054606E+04 </wgt>
<wgt id='scales1.00.5'>  0.269206346E+04 </wgt>
<wgt id='scales1.02.0'>  0.225048928E+04 </wgt>
<wgt id='scales2.01.0'>  0.210030055E+04 </wgt>
<wgt id='scales2.02.0'>  0.192500830E+04 </wgt>
</rwgt>
<scales uborns=' 0.557470056E+03'> </scales>
</event>
<event>
      5  10001  6.52423E+03  1.61871E+01  7.29735E-03  1.74323E-01
       1    -1     0     0   512     0  0.000000000E+00  0.000000000E+00  1.161642288E+03  1.161642288E+03  0.000000000E+00  0.00000E+00  9.000E+00
      21    -1     0     0   511   515  0.000000000E+00  0.000000000E+00 -2.186756886E+02  2.186756886E+02  0.000000000E+00  0.00000E+00  9.000E+00
       1     1     1     2   511     0  4.626503194E+02  1.105324669E+02  3.207014791E+02  5.736829986E+02  7.629394531E-06  0.00000E+00  9.000E+00
      21     1     1     2   512   515 -4.596462777E+02 -9.462655235E+01  5.094048843E+02  6.926198244E+02  1.206313194E-05  0.00000E+00  9.000E+00
      22     1     1     2     0     0 -3.004041721E+00 -1.590591450E+01  1.128602355E+02  1.140151532E+02  1.907348633E-06  0.00000E+00  9.000E+00
#rwgt            1         181   2.1197289922943018E-003        6024     4940836           0
<rwgt>
<wgt id='central'>  0.652422626E+04 </wgt>
<wgt id='sudakovwgt'>  0.262023834E-01 </wgt>
<wgt id='scales0.50.5'>  0.832477424E+04 </wgt>
<wgt id='scales0.51.0'>  0.776206580E+04 </wgt>
<wgt id='scales1.00.5'>  0.699720193E+04 </wgt>
<wgt id='scales1.02.0'>  0.609647943E+04 </wgt>
<wgt id='scales2.01.0'>  0.556344026E+04 </wgt>
<wgt id='scales2.02.0'>  0.519868231E+04 </wgt>
</rwgt>
<scales uborns=' 0.472409098E+03'> </scales>
</event>
<event>
      5  10001  1.40714E+04  8.40834E+01  7.29735E-03  1.27312E-01
      -3    -1     0     0     0   513  0.000000000E+00  0.000000000E+00  4.749861673E+02  4.749861673E+02  0.000000000E+00  0.00000E+00  9.000E+00
       2    -1     0     0   513     0  0.000000000E+00  0.000000000E+00 -2.801613719E+03  2.801613719E+03  0.000000000E+00  0.00000E+00  9.000E+00
       2     1     1     2   512     0 -4.095311569E+02 -6.650098403E+01 -2.178292385E+03  2.217452561E+03  0.000000000E+00  0.00000E+00  9.000E+00
      -3     1     1     2     0   512  3.919830442E+02  1.487328561E+02  3.546793734E+02  5.491535554E+02  1.144409180E-05  0.00000E+00  9.000E+00
      22     1     1     2     0     0  1.754811266E+01 -8.223187211E+01 -5.030145403E+02  5.099937694E+02  5.394796609E-06  0.00000E+00  9.000E+00
#rwgt            1         170   6.5810039509927622E-004        6024     4941045           0
<rwgt>
<wgt id='central'>  0.140714008E+05 </wgt>
<wgt id='sudakovwgt'>  0.278562303E-01 </wgt>
<wgt id='scales0.50.5'>  0.181724286E+05 </wgt>
<wgt id='scales0.51.0'>  0.167914692E+05 </wgt>
<wgt id='scales1.00.5'>  0.152286562E+05 </wgt>
<wgt id='scales1.02.0'>  0.130422194E+05 </wgt>
<wgt id='scales2.01.0'>  0.119691188E+05 </wgt>
<wgt id='scales2.02.0'>  0.110936988E+05 </wgt>
</rwgt>
<scales uborns=' 0.414954085E+03'> </scales>
</event>
<event>
      5  10001  7.16649E+00  3.71009E+02  7.29735E-03  1.02678E-01
      21    -1     0     0   511   513  0.000000000E+00  0.000000000E+00  7.322554338E+02  7.322554338E+02  0.000000000E+00  0.00000E+00  9.000E+00
      -1    -1     0     0     0   511  0.000000000E+00  0.000000000E+00 -4.442547408E+03  4.442547408E+03  0.000000000E+00  0.00000E+00  9.000E+00
      -1     1     1     2     0   512  5.352360056E+02 -4.576898329E+02 -1.277323257E+03  1.458599420E+03  1.525878906E-05  0.00000E+00  9.000E+00
      21     1     1     2   512   513 -1.371877188E+03  7.351423832E+02 -5.740984264E+02  1.658936511E+03  1.868812365E-05  0.00000E+00  9.000E+00
      22     1     1     2     0     0  8.366411827E+02 -2.774525503E+02 -1.858870291E+03  2.057266911E+03  2.157918644E-05  0.00000E+00  9.000E+00
#rwgt            1         196   3.5824246101527190E-003        6024     4944762           0
<rwgt>
<wgt id='central'>  0.716648627E+01 </wgt>
<wgt id='sudakovwgt'>  0.224360439E-01 </wgt>
<wgt id='scales0.50.5'>  0.975836942E+01 </wgt>
<wgt id='scales0.51.0'>  0.832807983E+01 </wgt>
<wgt id='scales1.00.5'>  0.839728464E+01 </wgt>
<wgt id='scales1.02.0'>  0.617196834E+01 </wgt>
<wgt id='scales2.01.0'>  0.623411494E+01 </wgt>
<wgt id='scales2.02.0'>  0.536898258E+01 </wgt>
</rwgt>
<scales uborns=' 0.156886577E+04'> </scales>
</event>
<event>
      5  10001  3.89697E+03  5.71271E+00  7.29735E-03  2.28832E-01
      -1    -1     0     0     0   512  0.000000000E+00  0.000000000E+00  3.943229454E+02  3.943229454E+02  0.000000000E+00  0.00000E+00  9.000E+00
       2    -1     0     0   512     0  0.000000000E+00  0.000000000E+00 -8.208455407E+02  8.208455407E+02  0.000000000E+00  0.00000E+00  9.000E+00
       2     1     1     2   511     0  2.777818541E+02 -4.361258537E+02 -4.273676420E+02  6.708290543E+02  9.344061824E-06  0.00000E+00  9.000E+00
      -1     1     1     2     0   511 -2.720737248E+02  4.358972087E+02  2.991926906E+01  5.147092879E+02  4.966894783E-06  0.00000E+00  9.000E+00
      22     1     1     2     0     0 -5.708129217E+00  2.286449352E-01 -2.907422238E+01  2.963014385E+01  0.000000000E+00  0.00000E+00  9.000E+00
#rwgt            1         161   3.5041040849411061E-004        6024     4944871           0
<rwgt>
<wgt id='central'>  0.389697370E+04 </wgt>
<wgt id='sudakovwgt'>  0.147971944E+00 </wgt>
<wgt id='scales0.50.5'>  0.481894481E+04 </wgt>
<wgt id='scales0.51.0'>  0.462726130E+04 </wgt>
<wgt id='scales1.00.5'>  0.405840132E+04 </wgt>
<wgt id='scales1.02.0'>  0.374492618E+04 </wgt>
<wgt id='scales2.01.0'>  0.332854505E+04 </wgt>
<wgt id='scales2.02.0'>  0.319867884E+04 </wgt>
</rwgt>
<scales uborns=' 0.515450397E+03'> </scales>
</event>
<event>
      5  10001  2.45888E+03  5.88764E+01  7.29735E-03  1.35143E-01
      21    -1     0     0   511   512  0.000000000E+00  0.000000000E+00  2.792647871E+02  2.792647871E+02  0.000000000E+00  0.00000E+00  9.000E+00
       1    -1     0     0   512     0  0.000000000E+00  0.000000000E+00 -2.528177994E+03  2.528177994E+03  0.000000000E+00  0.00000E+00  9.000E+00
       1     1     1     2   513     0  9.829792495E+00 -4.342371952E+02 -1.591972319E+03  1.650161940E+03  0.000000000E+00  0.00000E+00  9.000E+00
      21     1     1     2   511   513 -5.856589929E+01  5.522647747E+02 -7.370629408E+01  5.602311699E+02  1.328314617E-05  0.00000E+00  9.000E+00
      22     1     1     2     0     0  4.873610680E+01 -1.180275795E+02 -5.832345941E+02  5.970496708E+02  1.078959322E-05  0.00000E+00  9.000E+00
#rwgt            1         186   4.9775189149768306E-003        6024     4960234           0
<rwgt>
<wgt id='central'>  0.245888126E+04 </wgt>
<wgt id='sudakovwgt'>  0.512462258E-01 </wgt>
<wgt id='scales0.50.5'>  0.331679536E+04 </wgt>
<wgt id='scales0.51.0'>  0.291466257E+04 </wgt>
<wgt id='scales1.00.5'>  0.279812897E+04 </wgt>
<wgt id='scales1.02.0'>  0.217733045E+04 </wgt>
<wgt id='scales2.01.0'>  0.210325093E+04 </wgt>
<wgt id='scales2.02.0'>  0.186242203E+04 </wgt>
</rwgt>
<scales uborns=' 0.557336631E+03'> </scales>
</event>
<event>
      5  10001  7.83403E+00  4.79944E+01  7.29735E-03  1.40097E-01
       2    -1     0     0   513     0  0.000000000E+00  0.000000000E+00  1.935559784E+03  1.935559784E+03  0.000000000E+00  0.00000E+00  9.000E+00
       1    -1     0     0   514     0  0.000000000E+00  0.000000000E+00 -1.258130386E+03  1.258130386E+03  0.000000000E+00  0.00000E+00  9.000E+00
       2     1     1     2   514     0  2.495850386E+02 -1.088585258E+03  3.867539977E+02  1.181900677E+03  3.325575976E-05  0.00000E+00  9.000E+00
       1     1     1     2   513     0 -3.600438482E+02  1.498701414E+03  9.532565706E+01  1.544287694E+03  3.336497437E-05  0.00000E+00  9.000E+00
      22     1     1     2     0     0  1.104588096E+02 -4.101161559E+02  1.953497434E+02  4.675017991E+02  1.265191952E-05  0.00000E+00  9.000E+00
#rwgt            1          92   2.1504412128025862E-003        6024     4960563           0
<rwgt>
<wgt id='central'>  0.783402521E+01 </wgt>
<wgt id='sudakovwgt'>  0.824337570E-02 </wgt>
<wgt id='scales0.50.5'>  0.100678222E+02 </wgt>
<wgt id='scales0.51.0'>  0.910645023E+01 </wgt>
<wgt id='scales1.00.5'>  0.866107203E+01 </wgt>
<wgt id='scales1.02.0'>  0.712921184E+01 </wgt>
<wgt id='scales2.01.0'>  0.681311692E+01 </wgt>
<wgt id='scales2.02.0'>  0.620014907E+01 </wgt>
</rwgt>
<scales uborns=' 0.154228425E+04'> </scales>
</event>
<event>
      4  10001  2.14666E+04  8.94427E-01  7.29735E-03  7.52215E-01
      21    -1     0     0   512   514  0.000000000E+00  0.000000000E+00  5.932506363E+02  5.932506363E+02  0.000000000E+00  0.00000E+00  9.000E+00
       1    -1     0     0   514     0  0.000000000E+00  0.000000000E+00 -1.002099426E+03  1.002099426E+03  0.000000000E+00  0.00000E+00  9.000E+00
       1     1     1     2   511     0 -3.516793331E+02  1.602661090E+02 -8.946580929E+02  9.745648681E+02  1.078959322E-05  0.00000E+00  9.000E+00
      21     1     1     2   512   511  3.516793331E+02 -1.602661090E+02  4.858093028E+02  6.207851945E+02  7.629394531E-06  0.00000E+00  9.000E+00
#rwgt            1         186   4.1100138469094402E-003        6024     4972526           0
<rwgt>
<wgt id='central'>  0.214666090E+05 </wgt>
<wgt id='sudakovwgt'>  0.187203584E+01 </wgt>
<wgt id='scales0.50.5'>  0.285693659E+05 </wgt>
<wgt id='scales0.51.0'>  0.256595530E+05 </wgt>
<wgt id='scales1.00.5'>  0.239009289E+05 </wgt>
<wgt id='scales1.02.0'>  0.194091424E+05 </wgt>
<wgt id='scales2.01.0'>  0.182337436E+05 </wgt>
<wgt id='scales2.02.0'>  0.164861378E+05 </wgt>
</rwgt>
<scales uborns=' 0.386475845E+03'> </scales>
</event>
<event>
      5  10001  7.90726E+01  8.38459E+01  7.29735E-03  1.27370E-01
       1    -1     0     0   511     0  0.000000000E+00  0.000000000E+00  1.554168326E+03  1.554168326E+03  0.000000000E+00  0.00000E+00  9.000E+00
       2    -1     0     0   513     0  0.000000000E+00  0.000000000E+00 -1.691852311E+03  1.691852311E+03  0.000000000E+00  0.00000E+00  9.000E+00
       1     1     1     2   513     0 -6.060295713E+02  8.058976416E+02  1.199761409E+03  1.567217371E+03  3.411968960E-05  0.00000E+00  9.000E+00
       2     1     1     2   511     0  3.942108279E+02 -5.672325952E+02 -8.363519664E+02  1.084730199E+03  1.868812365E-05  0.00000E+00  9.000E+00
      22     1     1     2     0     0  2.118187433E+02 -2.386650464E+02 -5.010934284E+02  5.940730665E+02  1.618438983E-05  0.00000E+00  9.000E+00
#rwgt            1          96   3.1332764494085299E-003        6024     4974271           0
<rwgt>
<wgt id='central'>  0.790725779E+02 </wgt>
<wgt id='sudakovwgt'>  0.375188277E-02 </wgt>
<wgt id='scales0.50.5'>  0.103100045E+03 </wgt>
<wgt id='scales0.51.0'>  0.926122134E+02 </wgt>
<wgt id='scales1.00.5'>  0.880271440E+02 </wgt>
<wgt id='scales1.02.0'>  0.715156907E+02 </wgt>
<wgt id='scales2.01.0'>  0.683258655E+02 </wgt>
<wgt id='scales2.02.0'>  0.617960135E+02 </wgt>
</rwgt>
<scales uborns=' 0.100957275E+04'> </scales>
</event>
<event>
      5  10001  2.07765E+01  1.16265E+01  7.29735E-03  1.88483E-01
      21    -1     0     0   512   513  0.000000000E+00  0.000000000E+00  1.289712568E+03  1.289712568E+03  0.000000000E+00  0.00000E+00  9.000E+00
       2    -1     0     0   514     0  0.000000000E+00  0.000000000E+00 -1.424437989E+03  1.424437989E+03  0.000000000E+00  0.00000E+00  9.000E+00
      22     1     1     2     0     0  2.545401861E+02  3.704195816E+02  1.320596693E+02  4.684454387E+02  1.907348633E-06  0.00000E+00  9.000E+00
      21     1     1     2   514   513 -7.272991633E+02 -1.058932923E+03 -5.000713861E+02  1.378540677E+03  1.618438983E-05  0.00000E+00  9.000E+00
       2     1     1     2   512     0  4.727589772E+02  6.885133411E+02  2.332862958E+02  8.671644407E+02  1.963735607E-05  0.00000E+00  9.000E+00
#rwgt            1         187   1.3879885910252035E-003        6024     5019092           0
<rwgt>
<wgt id='central'>  0.207765426E+02 </wgt>
<wgt id='sudakovwgt'>  0.208462311E-02 </wgt>
<wgt id='scales0.50.5'>  0.275994970E+02 </wgt>
<wgt id='scales0.51.0'>  0.242275919E+02 </wgt>
<wgt id='scales1.00.5'>  0.236680951E+02 </wgt>
<wgt id='scales1.02.0'>  0.183984863E+02 </wgt>
<wgt id='scales2.01.0'>  0.180200575E+02 </wgt>
<wgt id='scales2.02.0'>  0.159575376E+02 </wgt>
</rwgt>
<scales uborns=' 0.128465397E+04'> </scales>
</event>
<event>
      5  10001  2.43528E+03  8.51074E+00  7.29735E-03  2.04217E-01
      -2    -1     0     0     0   511  0.000000000E+00  0.000000000E+00  1.010892984E+03  1.010892984E+03  0.000000000E+00  0.00000E+00  9.000E+00
      21    -1     0     0   512   513  0.000000000E+00  0.000000000E+00 -4.795620751E+02  4.795620751E+02  0.000000000E+00  0.00000E+00  9.000E+00
      -2     1     1     2     0   513  6.767127305E+01  5.581473378E+02  4.589402094E+02  7.257644023E+02  1.618438983E-05  0.00000E+00  9.000E+00
      21     1     1     2   512   511 -6.369657991E+01 -5.506217418E+02 -1.240996385E+02  5.680160888E+02  3.015782986E-06  0.00000E+00  9.000E+00
      22     1     1     2     0     0 -3.974693139E+00 -7.525595964E+00  1.964903384E+02  1.966745685E+02  2.697398305E-06  0.00000E+00  9.000E+00
#rwgt            1         192   6.0680766310151186E-004        6024     5020900           0
<rwgt>
<wgt id='central'>  0.243527599E+04 </wgt>
<wgt id='sudakovwgt'>  0.559930193E-01 </wgt>
<wgt id='scales0.50.5'>  0.317017753E+04 </wgt>
<wgt id='scales0.51.0'>  0.288658510E+04 </wgt>
<wgt id='scales1.00.5'>  0.267453398E+04 </wgt>
<wgt id='scales1.02.0'>  0.222865245E+04 </wgt>
<wgt id='scales2.01.0'>  0.208312664E+04 </wgt>
<wgt id='scales2.02.0'>  0.190637844E+04 </wgt>
</rwgt>
<scales uborns=' 0.558250851E+03'> </scales>
</event>
<event>
      5  10001  7.19287E+04  2.68209E+02  7.29735E-03  1.07197E-01
       3    -1     0     0   515     0  0.000000000E+00  0.000000000E+00  2.970520897E+02  2.970520897E+02  0.000000000E+00  0.00000E+00  9.000E+00
      21    -1     0     0   514   513  0.000000000E+00  0.000000000E+00 -3.559125255E+02  3.559125255E+02  0.000000000E+00  0.00000E+00  9.000E+00
      22     1     1     2     0     0 -1.061361049E+02 -4.656808429E+01  6.307224543E+01  1.319528984E+02  2.431401974E-06  0.00000E+00  9.000E+00
      21     1     1     2   515   513  2.667504620E+02  9.136550741E+01  4.446072160E+01  2.854474044E+02  2.739220927E-06  0.00000E+00  9.000E+00
       3     1     1     2   514     0 -1.606143570E+02 -4.479742312E+01 -1.663934029E+02  2.355643125E+02  3.814697266E-06  0.00000E+00  9.000E+00
#rwgt            1         183   2.5412160184080349E-004        6024     5022279           0
<rwgt>
<wgt id='central'>  0.719286783E+05 </wgt>
<wgt id='sudakovwgt'>  0.215868985E-01 </wgt>
<wgt id='scales0.50.5'>  0.897324005E+05 </wgt>
<wgt id='scales0.51.0'>  0.864107477E+05 </wgt>
<wgt id='scales1.00.5'>  0.746936589E+05 </wgt>
<wgt id='scales1.02.0'>  0.690984559E+05 </wgt>
<wgt id='scales2.01.0'>  0.608420848E+05 </wgt>
<wgt id='scales2.02.0'>  0.584480759E+05 </wgt>
</rwgt>
<scales uborns=' 0.315448044E+03'> </scales>
</event>
<event>
      5  10001  1.56627E+01  2.86817E+02  7.29735E-03  1.06230E-01
      21    -1     0     0   511   512  0.000000000E+00  0.000000000E+00  5.652238998E+02  5.652238998E+02  0.000000000E+00  0.00000E+00  9.000E+00
       2    -1     0     0   514     0  0.000000000E+00  0.000000000E+00 -3.401112106E+03  3.401112106E+03  0.000000000E+00  0.00000E+00  9.000E+00
       2     1     1     2   511     0 -7.355793689E+02  6.346769510E+02 -1.543998491E+03  1.824232217E+03  3.051757812E-05  0.00000E+00  9.000E+00
      21     1     1     2   514   512  8.409142915E+02 -1.011937983E+03 -9.603008434E+02  1.628905472E+03  1.078959322E-05  0.00000E+00  9.000E+00
      22     1     1     2     0     0 -1.053349226E+02  3.772610325E+02 -3.315888719E+02  5.131983169E+02  9.344061824E-06  0.00000E+00  9.000E+00
#rwgt            1         187   8.7756355859300219E-003        6024     5022411           0
<rwgt>
<wgt id='central'>  0.156627118E+02 </wgt>
<wgt id='sudakovwgt'>  0.448172311E-03 </wgt>
<wgt id='scales0.50.5'>  0.211477270E+02 </wgt>
<wgt id='scales0.51.0'>  0.182476114E+02 </wgt>
<wgt id='scales1.00.5'>  0.181519924E+02 </wgt>
<wgt id='scales1.02.0'>  0.136441417E+02 </wgt>
<wgt id='scales2.01.0'>  0.135953785E+02 </wgt>
<wgt id='scales2.02.0'>  0.118432500E+02 </wgt>
</rwgt>
<scales uborns=' 0.135350708E+04'> </scales>
</event>
<event>
      4  10001  1.68031E+01  8.94427E-01  7.29735E-03  7.41280E-01
      21    -1     0     0   513   515  0.000000000E+00  0.000000000E+00  1.647736127E+03  1.647736127E+03  0.000000000E+00  0.00000E+00  9.000E+00
       1    -1     0     0   511     0  0.000000000E+00  0.000000000E+00 -1.330084870E+03  1.330084870E+03  0.000000000E+00  0.00000E+00  9.000E+00
       1     1     1     2   513     0 -1.322261782E+03 -1.909321204E+02 -4.826413035E+02  1.420483693E+03  1.868812365E-05  0.00000E+00  9.000E+00
      21     1     1     2   511   515  1.322261782E+03  1.909321204E+02  8.002925608E+02  1.557337304E+03  1.868812365E-05  0.00000E+00  9.000E+00
#rwgt            1         186   2.0058825200564832E-003        6024     5022643           0
<rwgt>
<wgt id='central'>  0.168030870E+02 </wgt>
<wgt id='sudakovwgt'>  0.314985068E+01 </wgt>
<wgt id='scales0.50.5'>  0.227393712E+02 </wgt>
<wgt id='scales0.51.0'>  0.195806836E+02 </wgt>
<wgt id='scales1.00.5'>  0.195137174E+02 </wgt>
<wgt id='scales1.02.0'>  0.146186250E+02 </wgt>
<wgt id='scales2.01.0'>  0.145824106E+02 </wgt>
<wgt id='scales2.02.0'>  0.126866348E+02 </wgt>
</rwgt>
<scales uborns=' 0.133597578E+04'> </scales>
</event>
<event>
      5  10001  1.83223E+02  5.24607E+01  7.29735E-03  1.37895E-01
       1    -1     0     0   513     0  0.000000000E+00  0.000000000E+00  1.662722409E+03  1.662722409E+03  0.000000000E+00  0.00000E+00  9.000E+00
       2    -1     0     0   512     0  0.000000000E+00  0.000000000E+00 -4.587960408E+02  4.587960408E+02  0.000000000E+00  0.00000E+00  9.000E+00
       1     1     1     2   512     0  7.705322812E+02  3.951494689E+02  6.788101146E+02  1.100293720E+03  1.321449896E-05  0.00000E+00  9.000E+00
       2     1     1     2   513     0 -6.762473898E+02 -3.416045501E+02  5.061536279E+02  9.111507537E+02  1.078959322E-05  0.00000E+00  9.000E+00
      22     1     1     2     0     0 -9.428489143E+01 -5.354491884E+01  1.896262614E+01  1.100739764E+02  2.780414531E-06  0.00000E+00  9.000E+00
#rwgt            1          96   5.6029975240247149E-004        6024     5024549           0
<rwgt>
<wgt id='central'>  0.183222562E+03 </wgt>
<wgt id='sudakovwgt'>  0.172421513E-02 </wgt>
<wgt id='scales0.50.5'>  0.230975899E+03 </wgt>
<wgt id='scales0.51.0'>  0.215201969E+03 </wgt>
<wgt id='scales1.00.5'>  0.196652927E+03 </wgt>
<wgt id='scales1.02.0'>  0.171366225E+03 </wgt>
<wgt id='scales2.01.0'>  0.157942443E+03 </wgt>
<wgt id='scales2.02.0'>  0.147721630E+03 </wgt>
</rwgt>
<scales uborns=' 0.870880922E+03'> </scales>
</event>
<event>
      5  10001  6.56396E+01  5.54289E+00  7.29735E-03  2.30952E-01
      21    -1     0     0   511   512  0.000000000E+00  0.000000000E+00  2.406731194E+03  2.406731194E+03  0.000000000E+00  0.00000E+00  9.000E+00
       2    -1     0     0   514     0  0.000000000E+00  0.000000000E+00 -7.023253322E+02  7.023253322E+02  0.000000000E+00  0.00000E+00  9.000E+00
       2     1     1     2   511     0 -7.420751856E+02  7.304555559E+02 -4.482348059E+01  1.042233201E+03  2.253780803E-05  0.00000E+00  9.000E+00
      21     1     1     2   514   512  7.430247611E+02 -7.359165008E+02  1.764195131E+03  2.050864050E+03  3.051757812E-05  0.00000E+00  9.000E+00
      22     1     1     2     0     0 -9.495755306E-01  5.460944921E+00 -1.496578917E+01  1.595927500E+01  2.384185791E-07  0.00000E+00  9.000E+00
#rwgt            1         187   1.4267530342318105E-003        6024     5035495           0
<rwgt>
<wgt id='central'>  0.656396327E+02 </wgt>
<wgt id='sudakovwgt'>  0.165557860E+00 </wgt>
<wgt id='scales0.50.5'>  0.898277254E+02 </wgt>
<wgt id='scales0.51.0'>  0.768316588E+02 </wgt>
<wgt id='scales1.00.5'>  0.767425311E+02 </wgt>
<wgt id='scales1.02.0'>  0.568101294E+02 </wgt>
<wgt id='scales2.01.0'>  0.567483445E+02 </wgt>
<wgt id='scales2.02.0'>  0.491148756E+02 </wgt>
</rwgt>
<scales uborns=' 0.104352233E+04'> </scales>
</event>
<event>
      5  10001  6.42240E+03  2.93403E+02  7.29735E-03  1.05907E-01
      21    -1     0     0   513   515  0.000000000E+00  0.000000000E+00  2.039922488E+03  2.039922488E+03  0.000000000E+00  0.00000E+00  9.000E+00
      -2    -1     0     0     0   513  0.000000000E+00  0.000000000E+00 -1.379205349E+02  1.379205349E+02  0.000000000E+00  0.00000E+00  9.000E+00
      -2     1     1     2     0   511  2.316881668E+02  8.608314974E+01  3.164544670E+02  4.015384726E+02  5.394796609E-06  0.00000E+00  9.000E+00
      21     1     1     2   511   515 -4.348932229E+02  8.632464835E+01  1.348927531E+03  1.419925894E+03  1.525878906E-05  0.00000E+00  9.000E+00
      22     1     1     2     0     0  2.032050561E+02 -1.724077981E+02  2.366199552E+02  3.563786566E+02  7.136645101E-06  0.00000E+00  9.000E+00
#rwgt            1         197   3.0351121451421489E-004        6024     5037687           0
<rwgt>
<wgt id='central'>  0.642239996E+04 </wgt>
<wgt id='sudakovwgt'>  0.529585174E-03 </wgt>
<wgt id='scales0.50.5'>  0.859457721E+04 </wgt>
<wgt id='scales0.51.0'>  0.764045399E+04 </wgt>
<wgt id='scales1.00.5'>  0.722441529E+04 </wgt>
<wgt id='scales1.02.0'>  0.575083603E+04 </wgt>
<wgt id='scales2.01.0'>  0.547688328E+04 </wgt>
<wgt id='scales2.02.0'>  0.490418811E+04 </wgt>
</rwgt>
<scales uborns=' 0.473666628E+03'> </scales>
</event>
<event>
      5  10001  6.58330E+01  1.22978E+02  7.29735E-03  1.19918E-01
       2    -1     0     0   514     0  0.000000000E+00  0.000000000E+00  2.767570130E+03  2.767570130E+03  0.000000000E+00  0.00000E+00  9.000E+00
      21    -1     0     0   512   513  0.000000000E+00  0.000000000E+00 -4.883783448E+02  4.883783448E+02  0.000000000E+00  0.00000E+00  9.000E+00
       2     1     1     2   512     0 -5.437379029E+02 -5.575727361E+02  1.231892429E+03  1.457428290E+03  2.157918644E-05  0.00000E+00  9.000E+00
      21     1     1     2   514   513  7.600140670E+02  7.037012287E+02  4.174479582E+02  1.116727182E+03  1.525878906E-05  0.00000E+00  9.000E+00
      22     1     1     2     0     0 -2.162761641E+02 -1.461284926E+02  6.298513977E+02  6.817930029E+02  1.078959322E-05  0.00000E+00  9.000E+00
#rwgt            1         182   1.0434543074957609E-002        6024     5037875           0
<rwgt>
<wgt id='central'>  0.658330065E+02 </wgt>
<wgt id='sudakovwgt'>  0.678034475E-03 </wgt>
<wgt id='scales0.50.5'>  0.878699476E+02 </wgt>
<wgt id='scales0.51.0'>  0.770587848E+02 </wgt>
<wgt id='scales1.00.5'>  0.750692121E+02 </wgt>
<wgt id='scales1.02.0'>  0.582171705E+02 </wgt>
<wgt id='scales2.01.0'>  0.569150757E+02 </wgt>
<wgt id='scales2.02.0'>  0.503309080E+02 </wgt>
</rwgt>
<scales uborns=' 0.104297606E+04'> </scales>
</event>
<event>
      5  10001  1.01492E+03  9.48979E+00  7.29735E-03  1.98423E-01
      21    -1     0     0   511   512  0.000000000E+00  0.000000000E+00  2.871996800E+02  2.871996800E+02  0.000000000E+00  0.00000E+00  9.000E+00
       2    -1     0     0   515     0  0.000000000E+00  0.000000000E+00 -1.814455494E+03  1.814455494E+03  0.000000000E+00  0.00000E+00  9.000E+00
      22     1     1     2     0     0  1.330610542E+02  2.189495352E+02 -4.796832040E+02  5.438199328E+02  5.394796609E-06  0.00000E+00  9.000E+00
      21     1     1     2   515   512 -3.426594227E+02 -5.500471724E+02 -3.007217114E+02  7.144234875E+02  1.427329020E-05  0.00000E+00  9.000E+00
       2     1     1     2   511     0  2.095983685E+02  3.310976372E+02 -7.468508983E+02  8.434117534E+02  1.078959322E-05  0.00000E+00  9.000E+00
#rwgt            1         187   1.4059308324057098E-002        6024     5038994           0
<rwgt>
<wgt id='central'>  0.101491654E+04 </wgt>
<wgt id='sudakovwgt'>  0.992397615E-03 </wgt>
<wgt id='scales0.50.5'>  0.131560573E+04 </wgt>
<wgt id='scales0.51.0'>  0.119918193E+04 </wgt>
<wgt id='scales1.00.5'>  0.111345454E+04 </wgt>
<wgt id='scales1.02.0'>  0.929456121E+03 </wgt>
<wgt id='scales2.01.0'>  0.870486810E+03 </wgt>
<wgt id='scales2.02.0'>  0.797185289E+03 </wgt>
</rwgt>
<scales uborns=' 0.648067076E+03'> </scales>
</event>
<event>
      5  10001  8.13437E+01  1.37253E+00  7.29735E-03  4.77253E-01
      21    -1     0     0   514   512  0.000000000E+00  0.000000000E+00  1.384822460E+03  1.384822460E+03  0.000000000E+00  0.00000E+00  9.000E+00
       1    -1     0     0   512     0  0.000000000E+00  0.000000000E+00 -7.463825774E+02  7.463825774E+02  0.000000000E+00  0.00000E+00  9.000E+00
       1     1     1     2   513     0  1.167130307E+02  9.497363263E+02  1.487369081E+02  9.683716688E+02  9.536743164E-06  0.00000E+00  9.000E+00
      21     1     1     2   514   513 -1.217530498E+02 -9.971037345E+02  4.834396586E+02  1.114788575E+03  1.321449896E-05  0.00000E+00  9.000E+00
      22     1     1     2     0     0  5.040019127E+00  4.736740816E+01  6.263316348E+00  4.804479452E+01  1.079486029E-06  0.00000E+00  9.000E+00
#rwgt            1         186   1.2734852814402738E-003        6024     5040206           0
<rwgt>
<wgt id='central'>  0.813436517E+02 </wgt>
<wgt id='sudakovwgt'>  0.694112530E-01 </wgt>
<wgt id='scales0.50.5'>  0.107839388E+03 </wgt>
<wgt id='scales0.51.0'>  0.952811553E+02 </wgt>
<wgt id='scales1.00.5'>  0.920649506E+02 </wgt>
<wgt id='scales1.02.0'>  0.724729072E+02 </wgt>
<wgt id='scales2.01.0'>  0.702826746E+02 </wgt>
<wgt id='scales2.02.0'>  0.626181223E+02 </wgt>
</rwgt>
<scales uborns=' 0.100451882E+04'> </scales>
</event>
<event>
      5  10001  1.85666E+02  7.03333E+00  7.29735E-03  2.15262E-01
      -3    -1     0     0     0   511  0.000000000E+00  0.000000000E+00  7.543385263E+02  7.543385263E+02  0.000000000E+00  0.00000E+00  9.000E+00
      21    -1     0     0   513   514  0.000000000E+00  0.000000000E+00 -1.413312152E+03  1.413312152E+03  0.000000000E+00  0.00000E+00  9.000E+00
      -3     1     1     2     0   514 -9.617407377E+00 -8.466654684E+02  2.562819292E+02  8.846554906E+02  2.123933549E-05  0.00000E+00  9.000E+00
      21     1     1     2   513   511  1.199056460E+01  8.683377107E+02 -9.145638112E+02  1.261182429E+03  2.157918644E-05  0.00000E+00  9.000E+00
      22     1     1     2     0     0 -2.373157223E+00 -2.167224238E+01 -6.917440452E-01  2.181275945E+01  1.303319311E-07  0.00000E+00  9.000E+00
#rwgt            1         193   1.9980357108757661E-004        6024     5041599           0
<rwgt>
<wgt id='central'>  0.185665817E+03 </wgt>
<wgt id='sudakovwgt'>  0.355019515E-01 </wgt>
<wgt id='scales0.50.5'>  0.245894873E+03 </wgt>
<wgt id='scales0.51.0'>  0.218081156E+03 </wgt>
<wgt id='scales1.00.5'>  0.209345541E+03 </wgt>
<wgt id='scales1.02.0'>  0.165806000E+03 </wgt>
<wgt id='scales2.01.0'>  0.160042265E+03 </wgt>
<wgt id='scales2.02.0'>  0.142923140E+03 </wgt>
</rwgt>
<scales uborns=' 0.868869590E+03'> </scales>
</event>
<event>
      5  10001  3.48538E+03  5.84133E+01  7.29735E-03  1.35328E-01
      -1    -1     0     0     0   512  0.000000000E+00  0.000000000E+00  5.308902741E+02  5.308902741E+02  0.000000000E+00  0.00000E+00  9.000E+00
      21    -1     0     0   511   515  0.000000000E+00  0.000000000E+00 -5.560729374E+02  5.560729374E+02  0.000000000E+00  0.00000E+00  9.000E+00
      -1     1     1     2     0   515 -2.493918862E+02 -3.898945598E+02 -8.616295424E+01  4.707845955E+02  3.015782986E-06  0.00000E+00  9.000E+00
      21     1     1     2   511   512  2.928225774E+02  4.257724534E+02  1.242395093E+02  5.314722001E+02  1.018245530E-05  0.00000E+00  9.000E+00
      22     1     1     2     0     0 -4.343069120E+01 -3.587789351E+01 -6.325921836E+01  8.470641587E+01  1.651812370E-06  0.00000E+00  9.000E+00
#rwgt            1         191   3.2019524332309681E-004        6024     5041923           0
<rwgt>
<wgt id='central'>  0.348537916E+04 </wgt>
<wgt id='sudakovwgt'>  0.480348377E-03 </wgt>
<wgt id='scales0.50.5'>  0.452000836E+04 </wgt>
<wgt id='scales0.51.0'>  0.413680485E+04 </wgt>
<wgt id='scales1.00.5'>  0.380824025E+04 </wgt>
<wgt id='scales1.02.0'>  0.320425231E+04 </wgt>
<wgt id='scales2.01.0'>  0.297803826E+04 </wgt>
<wgt id='scales2.02.0'>  0.273783231E+04 </wgt>
</rwgt>
<scales uborns=' 0.525294905E+03'> </scales>
</event>
<event>
      5  10001  3.59577E+01  1.31777E+00  7.29735E-03  4.93970E-01
      21    -1     0     0   514   511  0.000000000E+00  0.000000000E+00  1.394475028E+03  1.394475028E+03  0.000000000E+00  0.00000E+00  9.000E+00
       1    -1     0     0   511     0  0.000000000E+00  0.000000000E+00 -1.610359521E+03  1.610359521E+03  0.000000000E+00  0.00000E+00  9.000E+00
       1     1     1     2   513     0  8.044027336E+02 -8.398527406E+02 -5.910027575E+02  1.304492485E+03  3.236877966E-05  0.00000E+00  9.000E+00
      21     1     1     2   514   513 -8.043619737E+02  8.385355971E+02  7.124656604E+02  1.362992094E+03  3.578503235E-05  0.00000E+00  9.000E+00
      22     1     1     2     0     0 -4.075986148E-02  1.317143482E+00 -3.373473959E+02  3.373499697E+02  0.000000000E+00  0.00000E+00  9.000E+00
#rwgt            1         186   2.4077018228978236E-003        6024     5042029           0
<rwgt>
<wgt id='central'>  0.359577036E+02 </wgt>
<wgt id='sudakovwgt'>  0.456019532E-01 </wgt>
<wgt id='scales0.50.5'>  0.483626867E+02 </wgt>
<wgt id='scales0.51.0'>  0.420055358E+02 </wgt>
<wgt id='scales1.00.5'>  0.413995666E+02 </wgt>
<wgt id='scales1.02.0'>  0.315335649E+02 </wgt>
<wgt id='scales2.01.0'>  0.311395343E+02 </wgt>
<wgt id='scales2.02.0'>  0.273082129E+02 </wgt>
</rwgt>
<scales uborns=' 0.116244468E+04'> </scales>
</event>
<event>
      5  10001  1.77942E+01  1.01922E+02  7.29735E-03  1.23457E-01
       1    -1     0     0   513     0  0.000000000E+00  0.000000000E+00  1.820399374E+03  1.820399374E+03  0.000000000E+00  0.00000E+00  9.000E+00
       2    -1     0     0   512     0  0.000000000E+00  0.000000000E+00 -1.261038307E+03  1.261038307E+03  0.000000000E+00  0.00000E+00  9.000E+00
       1     1     1     2   512     0  8.992679560E+02  9.674991424E+02  1.031832609E+03  1.676131254E+03  0.000000000E+00  0.00000E+00  9.000E+00
      22     1     1     2     0     0 -3.775156018E+02 -3.552414682E+02 -2.076595389E+02  5.584236872E+02  1.078959322E-05  0.00000E+00  9.000E+00
       2     1     1     2   513     0 -5.217523541E+02 -6.122576742E+02 -2.648120034E+02  8.468827403E+02  1.705984480E-05  0.00000E+00  9.000E+00
#rwgt            1          96   2.2607802322326155E-003        6024     5043594           0
<rwgt>
<wgt id='central'>  0.177942133E+02 </wgt>
<wgt id='sudakovwgt'>  0.128670527E-02 </wgt>
<wgt id='scales0.50.5'>  0.229332745E+02 </wgt>
<wgt id='scales0.51.0'>  0.207394724E+02 </wgt>
<wgt id='scales1.00.5'>  0.196764539E+02 </wgt>
<wgt id='scales1.02.0'>  0.161911597E+02 </wgt>
<wgt id='scales2.01.0'>  0.154400693E+02 </wgt>
<wgt id='scales2.02.0'>  0.140491074E+02 </wgt>
</rwgt>
<scales uborns=' 0.132188120E+04'> </scales>
</event>
<event>
      5  10001  4.23943E-01  3.63174E+03  7.29735E-03  7.92982E-02
       2    -1     0     0   512     0  0.000000000E+00  0.000000000E+00  4.213050656E+03  4.213050656E+03  0.000000000E+00  0.00000E+00  9.000E+00
       2    -1     0     0   511     0  0.000000000E+00  0.000000000E+00 -2.334089384E+03  2.334089384E+03  0.000000000E+00  0.00000E+00  9.000E+00
       2     1     1     2   511     0  8.880131946E+02 -2.719348460E+03  2.204167185E+03  3.611339981E+03  3.051757812E-05  0.00000E+00  9.000E+00
      22     1     1     2     0     0  2.269550521E+01  5.727009992E+01  7.154949761E+01  9.441546965E+01  1.907348633E-06  0.00000E+00  9.000E+00
       2     1     1     2   512     0 -9.107086999E+02  2.662078360E+03 -3.967554105E+02  2.841384589E+03  1.945121580E-05  0.00000E+00  9.000E+00
#rwgt            1          97   1.1034905292353058E-002        6024     5059193           0
<rwgt>
<wgt id='central'>  0.423943406E+00 </wgt>
<wgt id='sudakovwgt'>  0.408243701E-03 </wgt>
<wgt id='scales0.50.5'>  0.575020609E+00 </wgt>
<wgt id='scales0.51.0'>  0.487946837E+00 </wgt>
<wgt id='scales1.00.5'>  0.499595333E+00 </wgt>
<wgt id='scales1.02.0'>  0.363599600E+00 </wgt>
<wgt id='scales2.01.0'>  0.371856543E+00 </wgt>
<wgt id='scales2.02.0'>  0.318927050E+00 </wgt>
</rwgt>
<scales uborns=' 0.288485194E+04'> </scales>
</event>
<event>
      5  10001  2.85745E+02  2.03536E+01  7.29735E-03  1.65743E-01
       2    -1     0     0   512     0  0.000000000E+00  0.000000000E+00  1.262088767E+03  1.262088767E+03  0.000000000E+00  0.00000E+00  9.000E+00
      -1    -1     0     0     0   512  0.000000000E+00  0.000000000E+00 -7.231840589E+02  7.231840589E+02  0.000000000E+00  0.00000E+00  9.000E+00
       2     1     1     2   513     0  7.105545571E+02 -3.705117548E+02  6.574384602E+02  1.036528855E+03  2.642899792E-05  0.00000E+00  9.000E+00
      -1     1     1     2     0   513 -7.105200170E+02  3.908653391E+02 -2.240231393E+02  8.413089651E+02  2.106735424E-05  0.00000E+00  9.000E+00
      22     1     1     2     0     0 -3.454014880E-02 -2.035358427E+01  1.054893873E+02  1.074350056E+02  0.000000000E+00  0.00000E+00  9.000E+00
#rwgt            1         145   4.3148457486504748E-004        6024     5059468           0
<rwgt>
<wgt id='central'>  0.285745077E+03 </wgt>
<wgt id='sudakovwgt'>  0.602941016E-01 </wgt>
<wgt id='scales0.50.5'>  0.361890605E+03 </wgt>
<wgt id='scales0.51.0'>  0.336126930E+03 </wgt>
<wgt id='scales1.00.5'>  0.307646968E+03 </wgt>
<wgt id='scales1.02.0'>  0.266450199E+03 </wgt>
<wgt id='scales2.01.0'>  0.246002321E+03 </wgt>
<wgt id='scales2.02.0'>  0.229391126E+03 </wgt>
</rwgt>
<scales uborns=' 0.806082586E+03'> </scales>
</event>
<event>
      5  10001  1.57153E+01  3.86930E+00  7.29735E-03  2.66916E-01
       2    -1     0     0   513     0  0.000000000E+00  0.000000000E+00  1.008326876E+03  1.008326876E+03  0.000000000E+00  0.00000E+00  9.000E+00
      21    -1     0     0   511   512  0.000000000E+00  0.000000000E+00 -1.884183023E+03  1.884183023E+03  0.000000000E+00  0.00000E+00  9.000E+00
       2     1     1     2   511     0  3.404751419E+02 -1.308359005E+03 -1.852515223E+02  1.364567600E+03  3.191604715E-05  0.00000E+00  9.000E+00
      21     1     1     2   513   512 -3.443107001E+02  1.308868865E+03 -6.955450516E+02  1.521667008E+03  1.321449896E-05  0.00000E+00  9.000E+00
      22     1     1     2     0     0  3.835558203E+00 -5.098605091E-01  4.940427172E+00  6.275291636E+00  5.960464478E-08  0.00000E+00  9.000E+00
#rwgt            1         182   1.9365427580573251E-003        6024     5111061           0
<rwgt>
<wgt id='central'>  0.157152749E+02 </wgt>
<wgt id='sudakovwgt'>  0.106081042E+01 </wgt>
<wgt id='scales0.50.5'>  0.210315249E+02 </wgt>
<wgt id='scales0.51.0'>  0.183090913E+02 </wgt>
<wgt id='scales1.00.5'>  0.180520549E+02 </wgt>
<wgt id='scales1.02.0'>  0.138122975E+02 </wgt>
<wgt id='scales2.01.0'>  0.136409089E+02 </wgt>
<wgt id='scales2.02.0'>  0.119890993E+02 </wgt>
</rwgt>
<scales uborns=' 0.135266508E+04'> </scales>
</event>
<event>
      5  10001  2.77172E+01  1.07186E+02  7.29735E-03  1.22487E-01
       1    -1     0     0   514     0  0.000000000E+00  0.000000000E+00  7.805452549E+02  7.805452549E+02  0.000000000E+00  0.00000E+00  9.000E+00
       1    -1     0     0   511     0  0.000000000E+00  0.000000000E+00 -2.752420085E+03  2.752420085E+03  0.000000000E+00  0.00000E+00  9.000E+00
       1     1     1     2   514     0  5.379931359E+02  1.082291334E+03 -1.951266578E+03  2.295263036E+03  3.737624730E-05  0.00000E+00  9.000E+00
       1     1     1     2   511     0 -4.469036582E+02 -1.003358044E+03 -8.386146646E+01  1.101582040E+03  6.675720215E-06  0.00000E+00  9.000E+00
      22     1     1     2     0     0 -9.108947777E+01 -7.893328970E+01  6.325321454E+01  1.361202642E+02  1.168007728E-06  0.00000E+00  9.000E+00
#rwgt            1          91   3.5748338615675579E-004        6024     5120629           0
<rwgt>
<wgt id='central'>  0.277171936E+02 </wgt>
<wgt id='sudakovwgt'>  0.647967325E-01 </wgt>
<wgt id='scales0.50.5'>  0.365857680E+02 </wgt>
<wgt id='scales0.51.0'>  0.323515235E+02 </wgt>
<wgt id='scales1.00.5'>  0.313448931E+02 </wgt>
<wgt id='scales1.02.0'>  0.247021179E+02 </wgt>
<wgt id='scales2.01.0'>  0.240206550E+02 </wgt>
<wgt id='scales2.02.0'>  0.214076838E+02 </wgt>
</rwgt>
<scales uborns=' 0.121865668E+04'> </scales>
</event>
<event>
      5  10001  2.29293E+02  5.73835E+01  7.29735E-03  1.35746E-01
       4    -1     0     0   513     0  0.000000000E+00  0.000000000E+00  1.439068410E+03  1.439068410E+03  0.000000000E+00  0.00000E+00  9.000E+00
       2    -1     0     0   512     0  0.000000000E+00  0.000000000E+00 -6.630861098E+02  6.630861098E+02  0.000000000E+00  0.00000E+00  9.000E+00
       4     1     1     2   512     0  3.991111376E+00 -7.728991283E+02  8.920621195E+02  1.180323607E+03  2.157918644E-05  0.00000E+00  9.000E+00
       2     1     1     2   513     0 -5.123851558E+01  8.267061960E+02 -1.513539895E+02  8.420074526E+02  7.864199878E-06  0.00000E+00  9.000E+00
      22     1     1     2     0     0  4.724740421E+01 -5.380706771E+01  3.527416999E+01  7.982346026E+01  6.743495762E-07  0.00000E+00  9.000E+00
#rwgt            1          99   4.3370039428394428E-005        6024     5121751           0
<rwgt>
<wgt id='central'>  0.229292843E+03 </wgt>
<wgt id='sudakovwgt'>  0.131773248E-02 </wgt>
<wgt id='scales0.50.5'>  0.275739593E+03 </wgt>
<wgt id='scales0.51.0'>  0.269518338E+03 </wgt>
<wgt id='scales1.00.5'>  0.234585739E+03 </wgt>
<wgt id='scales1.02.0'>  0.223329802E+03 </wgt>
<wgt id='scales2.01.0'>  0.197527992E+03 </wgt>
<wgt id='scales2.02.0'>  0.192390903E+03 </wgt>
</rwgt>
<scales uborns=' 0.837497004E+03'> </scales>
</event>
<event>
      5  10001  7.98845E+03  4.54920E+01  7.29735E-03  1.41458E-01
      21    -1     0     0   511   512  0.000000000E+00  0.000000000E+00  2.931116043E+02  2.931116043E+02  0.000000000E+00  0.00000E+00  9.000E+00
      -3    -1     0     0     0   511  0.000000000E+00  0.000000000E+00 -7.863112297E+02  7.863112297E+02  0.000000000E+00  0.00000E+00  9.000E+00
      -3     1     1     2     0   514  3.056858379E+01 -3.861208720E+02 -3.037966352E+02  4.922561951E+02  0.000000000E+00  0.00000E+00  9.000E+00
      21     1     1     2   514   512 -4.676194835E+01  4.494518169E+02 -7.880926239E+01  4.586987196E+02  6.538061715E-06  0.00000E+00  9.000E+00
      22     1     1     2     0     0  1.619336456E+01 -6.333094496E+01 -1.105937278E+02  1.284679192E+02  1.348699152E-06  0.00000E+00  9.000E+00
#rwgt            1         198   4.5743500059504903E-004        6024     5124345           0
<rwgt>
<wgt id='central'>  0.798845354E+04 </wgt>
<wgt id='sudakovwgt'>  0.787337961E-03 </wgt>
<wgt id='scales0.50.5'>  0.101136745E+05 </wgt>
<wgt id='scales0.51.0'>  0.951151897E+04 </wgt>
<wgt id='scales1.00.5'>  0.849418305E+04 </wgt>
<wgt id='scales1.02.0'>  0.751436866E+04 </wgt>
<wgt id='scales2.01.0'>  0.680758028E+04 </wgt>
<wgt id='scales2.02.0'>  0.640357865E+04 </wgt>
</rwgt>
<scales uborns=' 0.456525513E+03'> </scales>
</event>
<event>
      5  10001  4.67343E+01  3.02482E+01  7.29735E-03  1.52792E-01
      21    -1     0     0   513   515  0.000000000E+00  0.000000000E+00  1.410430066E+03  1.410430066E+03  0.000000000E+00  0.00000E+00  9.000E+00
       2    -1     0     0   512     0  0.000000000E+00  0.000000000E+00 -2.388831717E+03  2.388831717E+03  0.000000000E+00  0.00000E+00  9.000E+00
       2     1     1     2   513     0 -4.487061927E+02  1.000722594E+03 -1.936117418E+03  2.225159233E+03  4.825252777E-05  0.00000E+00  9.000E+00
      21     1     1     2   512   515  4.420963692E+02 -1.030239741E+03  1.013077747E+03  1.511016097E+03  2.854658040E-05  0.00000E+00  9.000E+00
      22     1     1     2     0     0  6.609823486E+00  2.951714747E+01 -5.536197922E+01  6.308645262E+01  1.168007728E-06  0.00000E+00  9.000E+00
#rwgt            1         187   1.1042686577282215E-002        6024     5124546           0
<rwgt>
<wgt id='central'>  0.467342916E+02 </wgt>
<wgt id='sudakovwgt'>  0.508390766E-01 </wgt>
<wgt id='scales0.50.5'>  0.641811145E+02 </wgt>
<wgt id='scales0.51.0'>  0.546416339E+02 </wgt>
<wgt id='scales1.00.5'>  0.548932974E+02 </wgt>
<wgt id='scales1.02.0'>  0.402452546E+02 </wgt>
<wgt id='scales2.01.0'>  0.404424523E+02 </wgt>
<wgt id='scales2.02.0'>  0.348270283E+02 </wgt>
</rwgt>
<scales uborns=' 0.110884109E+04'> </scales>
</event>
<event>
      5  10001  2.41457E+02  1.47747E+02  7.29735E-03  1.16655E-01
       2    -1     0     0   513     0  0.000000000E+00  0.000000000E+00  4.187739129E+03  4.187739129E+03  0.000000000E+00  0.00000E+00  9.000E+00
       2    -1     0     0   511     0  0.000000000E+00  0.000000000E+00 -1.459308499E+03  1.459308499E+03  0.000000000E+00  0.00000E+00  9.000E+00
       2     1     1     2   511     0 -2.744478815E+02  8.399214288E+02 -1.452557237E+02  8.954824797E+02  2.450033680E-05  0.00000E+00  9.000E+00
       2     1     1     2   513     0  1.459894976E+02 -7.669311624E+02  3.766525354E+03  3.846584145E+03  6.103515625E-05  0.00000E+00  9.000E+00
      22     1     1     2     0     0  1.284583838E+02 -7.299026638E+01 -8.928390009E+02  9.049810036E+02  1.525878906E-05  0.00000E+00  9.000E+00
#rwgt            1          97   5.5065175887506618E-003        6024     5125617           0
<rwgt>
<wgt id='central'>  0.241457225E+03 </wgt>
<wgt id='sudakovwgt'>  0.347519499E-01 </wgt>
<wgt id='scales0.50.5'>  0.323864392E+03 </wgt>
<wgt id='scales0.51.0'>  0.283866386E+03 </wgt>
<wgt id='scales1.00.5'>  0.275479340E+03 </wgt>
<wgt id='scales1.02.0'>  0.213556192E+03 </wgt>
<wgt id='scales2.01.0'>  0.207975735E+03 </wgt>
<wgt id='scales2.02.0'>  0.183943750E+03 </wgt>
</rwgt>
<scales uborns=' 0.830001901E+03'> </scales>
</event>
<event>
      5  10001  2.71196E+06  6.87446E+01  7.29735E-03  1.31620E-01
       2    -1     0     0   512     0  0.000000000E+00  0.000000000E+00  2.021345316E+03  2.021345316E+03  0.000000000E+00  0.00000E+00  9.000E+00
       2    -1     0     0   511     0  0.000000000E+00  0.000000000E+00 -1.467564105E+01  1.467564105E+01  0.000000000E+00  0.00000E+00  9.000E+00
       2     1     1     2   512     0 -1.412183195E+02  6.026726542E+01  8.388282860E+02  8.527647099E+02  1.525878906E-05  0.00000E+00  9.000E+00
      22     1     1     2     0     0  1.209859520E+02 -5.660796155E+01  5.851457334E+02  6.001979600E+02  0.000000000E+00  0.00000E+00  9.000E+00
       2     1     1     2   511     0  2.023236749E+01 -3.659303868E+00  5.826956556E+02  5.830582872E+02  7.629394531E-06  0.00000E+00  9.000E+00
#rwgt            1          97   2.1114050504120326E-004        6024     5137333           0
<rwgt>
<wgt id='central'>  0.271196200E+07 </wgt>
<wgt id='sudakovwgt'>  0.102029712E-02 </wgt>
<wgt id='scales0.50.5'>  0.328608064E+07 </wgt>
<wgt id='scales0.51.0'>  0.331354277E+07 </wgt>
<wgt id='scales1.00.5'>  0.268948370E+07 </wgt>
<wgt id='scales1.02.0'>  0.271793226E+07 </wgt>
<wgt id='scales2.01.0'>  0.226233110E+07 </wgt>
<wgt id='scales2.02.0'>  0.226731319E+07 </wgt>
</rwgt>
<scales uborns=' 0.171890513E+03'> </scales>
</event>
<event>
      5  10001  2.73616E+05  1.23510E+00  7.29735E-03  5.23343E-01
      -3    -1     0     0     0   511  0.000000000E+00  0.000000000E+00  2.587252830E+02  2.587252830E+02  0.000000000E+00  0.00000E+00  9.000E+00
       1    -1     0     0   511     0  0.000000000E+00  0.000000000E+00 -1.335106208E+03  1.335106208E+03  0.000000000E+00  0.00000E+00  9.000E+00
       1     1     1     2   513     0 -2.343413843E+02  9.341221674E+01 -1.117968324E+03  1.146078051E+03  0.000000000E+00  0.00000E+00  9.000E+00
      -3     1     1     2     0   513  2.337411922E+02 -9.449168572E+01 -1.248315223E+02  2.813299354E+02  6.743495762E-06  0.00000E+00  9.000E+00
      22     1     1     2     0     0  6.001920256E-01  1.079468978E+00  1.664189210E+02  1.664235042E+02  2.697398305E-06  0.00000E+00  9.000E+00
#rwgt            1         169   1.8406650814227981E-004        6024     5140704           0
<rwgt>
<wgt id='central'>  0.273616260E+06 </wgt>
<wgt id='sudakovwgt'>  0.489734488E-01 </wgt>
<wgt id='scales0.50.5'>  0.337174856E+06 </wgt>
<wgt id='scales0.51.0'>  0.330643817E+06 </wgt>
<wgt id='scales1.00.5'>  0.279020597E+06 </wgt>
<wgt id='scales1.02.0'>  0.267392211E+06 </wgt>
<wgt id='scales2.01.0'>  0.230321590E+06 </wgt>
<wgt id='scales2.02.0'>  0.225082595E+06 </wgt>
</rwgt>
<scales uborns=' 0.252194946E+03'> </scales>
</event>
<event>
      5  10001  9.77059E+04  8.10524E+01  7.29735E-03  1.28075E-01
       2    -1     0     0   513     0  0.000000000E+00  0.000000000E+00  1.926625030E+03  1.926625030E+03  0.000000000E+00  0.00000E+00  9.000E+00
      21    -1     0     0   512   514  0.000000000E+00  0.000000000E+00 -4.688848713E+01  4.688848713E+01  0.000000000E+00  0.00000E+00  9.000E+00
      22     1     1     2     0     0 -1.543390978E+02  1.861654779E+01  3.625975712E+02  3.945175935E+02  5.394796609E-06  0.00000E+00  9.000E+00
      21     1     1     2   513   514  2.929404010E+02  1.977749714E+01  9.957175337E+02  1.038103384E+03  1.525878906E-05  0.00000E+00  9.000E+00
       2     1     1     2   512     0 -1.386013032E+02 -3.839404493E+01  5.214214377E+02  5.408925398E+02  7.629394531E-06  0.00000E+00  9.000E+00
#rwgt            1         182   9.6614099511231170E-003        6024     5143656           0
<rwgt>
<wgt id='central'>  0.977058945E+05 </wgt>
<wgt id='sudakovwgt'>  0.983886560E-03 </wgt>
<wgt id='scales0.50.5'>  0.121669879E+06 </wgt>
<wgt id='scales0.51.0'>  0.117532418E+06 </wgt>
<wgt id='scales1.00.5'>  0.101145414E+06 </wgt>
<wgt id='scales1.02.0'>  0.940814586E+05 </wgt>
<wgt id='scales2.01.0'>  0.825561958E+05 </wgt>
<wgt id='scales2.02.0'>  0.794937390E+05 </wgt>
</rwgt>
<scales uborns=' 0.299658792E+03'> </scales>
</event>
<event>
      5  10001  2.23302E+04  1.30365E+01  7.29735E-03  1.83323E-01
       2    -1     0     0   512     0  0.000000000E+00  0.000000000E+00  1.500491391E+03  1.500491391E+03  0.000000000E+00  0.00000E+00  9.000E+00
       1    -1     0     0   511     0  0.000000000E+00  0.000000000E+00 -1.442134563E+02  1.442134563E+02  0.000000000E+00  0.00000E+00  9.000E+00
       2     1     1     2   511     0 -3.804141937E+01 -3.799592560E+02  6.809010410E+02  7.806679278E+02  2.018548058E-05  0.00000E+00  9.000E+00
       1     1     1     2   512     0  2.610798816E+01  3.852074668E+02  3.013259439E+02  4.897588632E+02  5.394796609E-06  0.00000E+00  9.000E+00
      22     1     1     2     0     0  1.193343122E+01 -5.248210832E+00  3.740509495E+02  3.742780562E+02  5.394796609E-06  0.00000E+00  9.000E+00
#rwgt            1          92   4.7058818346322370E-004        6024     5144209           0
<rwgt>
<wgt id='central'>  0.223302051E+05 </wgt>
<wgt id='sudakovwgt'>  0.750822389E-01 </wgt>
<wgt id='scales0.50.5'>  0.273001764E+05 </wgt>
<wgt id='scales0.51.0'>  0.266960930E+05 </wgt>
<wgt id='scales1.00.5'>  0.228354913E+05 </wgt>
<wgt id='scales1.02.0'>  0.218111591E+05 </wgt>
<wgt id='scales2.01.0'>  0.189647664E+05 </wgt>
<wgt id='scales2.02.0'>  0.185239513E+05 </wgt>
</rwgt>
<scales uborns=' 0.383920235E+03'> </scales>
</event>
<event>
      5  10001  1.17281E+03  1.22729E+02  7.29735E-03  1.19955E-01
      -2    -1     0     0     0   513  0.000000000E+00  0.000000000E+00  3.700432796E+02  3.700432796E+02  0.000000000E+00  0.00000E+00  9.000E+00
       2    -1     0     0   513     0  0.000000000E+00  0.000000000E+00 -1.219607089E+03  1.219607089E+03  0.000000000E+00  0.00000E+00  9.000E+00
       2     1     1     2   512     0  4.823260572E+02  3.897149428E+02 -6.801401047E+02  9.203840091E+02  1.525878906E-05  0.00000E+00  9.000E+00
      -2     1     1     2     0   512 -2.860650126E+02 -3.312127129E+02 -7.611599231E+01  4.442169480E+02  9.196902047E-06  0.00000E+00  9.000E+00
      22     1     1     2     0     0 -1.962610445E+02 -5.850222993E+01 -9.330771248E+01  2.250494117E+02  5.223489356E-06  0.00000E+00  9.000E+00
#rwgt            1          72   4.3804141337957386E-004        6024     5158158           0
<rwgt>
<wgt id='central'>  0.117280828E+04 </wgt>
<wgt id='sudakovwgt'>  0.996883925E-03 </wgt>
<wgt id='scales0.50.5'>  0.146005353E+04 </wgt>
<wgt id='scales0.51.0'>  0.138645647E+04 </wgt>
<wgt id='scales1.00.5'>  0.123506610E+04 </wgt>
<wgt id='scales1.02.0'>  0.111568435E+04 </wgt>
<wgt id='scales2.01.0'>  0.100546763E+04 </wgt>
<wgt id='scales2.02.0'>  0.956492951E+03 </wgt>
</rwgt>
<scales uborns=' 0.632245570E+03'> </scales>
</event>
<event>
      5  10001  3.16183E+03  7.77644E+00  7.29735E-03  2.09293E-01
      -4    -1     0     0     0   511  0.000000000E+00  0.000000000E+00  1.426740965E+02  1.426740965E+02  0.000000000E+00  0.00000E+00  9.000E+00
      21    -1     0     0   511   514  0.000000000E+00  0.000000000E+00 -2.270325036E+03  2.270325036E+03  0.000000000E+00  0.00000E+00  9.000E+00
      -4     1     1     2     0   512  5.088207052E+02 -1.745585366E+02 -1.026875031E+03  1.159241788E+03  2.157918644E-05  0.00000E+00  9.000E+00
      21     1     1     2   512   514 -5.017402255E+02  1.713429754E+02 -1.116624598E+03  1.236103621E+03  1.525878906E-05  0.00000E+00  9.000E+00
      22     1     1     2     0     0 -7.080479730E+00  3.215561189E+00  1.584868920E+01  1.765372415E+01  9.233911863E-07  0.00000E+00  9.000E+00
#rwgt            1         194   9.1418815849739720E-005        6024     5161691           0
<rwgt>
<wgt id='central'>  0.316182622E+04 </wgt>
<wgt id='sudakovwgt'>  0.141876317E+00 </wgt>
<wgt id='scales0.50.5'>  0.412116030E+04 </wgt>
<wgt id='scales0.51.0'>  0.375141539E+04 </wgt>
<wgt id='scales1.00.5'>  0.347346452E+04 </wgt>
<wgt id='scales1.02.0'>  0.288403785E+04 </wgt>
<wgt id='scales2.01.0'>  0.270241161E+04 </wgt>
<wgt id='scales2.02.0'>  0.246498305E+04 </wgt>
</rwgt>
<scales uborns=' 0.534046219E+03'> </scales>
</event>
<event>
      5  10001  9.56739E+02  6.28590E+00  7.29735E-03  2.22377E-01
       2    -1     0     0   514     0  0.000000000E+00  0.000000000E+00  3.340154045E+03  3.340154045E+03  0.000000000E+00  0.00000E+00  9.000E+00
      21    -1     0     0   513   515  0.000000000E+00  0.000000000E+00 -5.786623067E+02  5.786623067E+02  0.000000000E+00  0.00000E+00  9.000E+00
       2     1     1     2   513     0 -3.901652849E+02  5.273629870E+02  1.419318677E+03  1.563587598E+03  3.737624730E-05  0.00000E+00  9.000E+00
      21     1     1     2   514   515  3.839903123E+02 -5.285386964E+02 -2.958686414E+02  7.171749902E+02  1.144409180E-05  0.00000E+00  9.000E+00
      22     1     1     2     0     0  6.174972664E+00  1.175709385E+00  1.638041703E+03  1.638053763E+03  2.157918644E-05  0.00000E+00  9.000E+00
#rwgt            1         182   9.2490433668918175E-003        6024     5164031           0
<rwgt>
<wgt id='central'>  0.956738835E+03 </wgt>
<wgt id='sudakovwgt'>  0.741760251E-01 </wgt>
<wgt id='scales0.50.5'>  0.126587684E+04 </wgt>
<wgt id='scales0.51.0'>  0.113019944E+04 </wgt>
<wgt id='scales1.00.5'>  0.107159295E+04 </wgt>
<wgt id='scales1.02.0'>  0.860340256E+03 </wgt>
<wgt id='scales2.01.0'>  0.820731611E+03 </wgt>
<wgt id='scales2.02.0'>  0.738036647E+03 </wgt>
</rwgt>
<scales uborns=' 0.654645338E+03'> </scales>
</event>
<event>
      5  10001  1.39997E+00  1.50791E+03  7.29735E-03  8.69045E-02
       2    -1     0     0   512     0  0.000000000E+00  0.000000000E+00  2.388025837E+03  2.388025837E+03  0.000000000E+00  0.00000E+00  9.000E+00
       2    -1     0     0   511     0  0.000000000E+00  0.000000000E+00 -2.076181426E+03  2.076181426E+03  0.000000000E+00  0.00000E+00  9.000E+00
       2     1     1     2   511     0 -6.541244348E+02 -2.059630542E+03 -2.720358636E+02  2.178063419E+03  5.554283058E-05  0.00000E+00  9.000E+00
      22     1     1     2     0     0 -2.739639421E+01  1.824034102E+02 -4.954485223E+01  1.909875882E+02  4.422005890E-06  0.00000E+00  9.000E+00
       2     1     1     2   512     0  6.815208290E+02  1.877227132E+03  6.334251265E+02  2.095156256E+03  1.705984480E-05  0.00000E+00  9.000E+00
#rwgt            1          97   5.9122029639888177E-003        6024     5170445           0
<rwgt>
<wgt id='central'>  0.139997401E+01 </wgt>
<wgt id='sudakovwgt'>  0.117171978E-02 </wgt>
<wgt id='scales0.50.5'>  0.182332564E+01 </wgt>
<wgt id='scales0.51.0'>  0.161814928E+01 </wgt>
<wgt id='scales1.00.5'>  0.157748190E+01 </wgt>
<wgt id='scales1.02.0'>  0.125183026E+01 </wgt>
<wgt id='scales2.01.0'>  0.122348777E+01 </wgt>
<wgt id='scales2.02.0'>  0.109402273E+01 </wgt>
</rwgt>
<scales uborns=' 0.218475747E+04'> </scales>
</event>
<event>
      5  10001  7.59662E+03  3.71755E+00  7.29735E-03  2.71196E-01
       1    -1     0     0   511     0  0.000000000E+00  0.000000000E+00  8.786333806E+02  8.786333806E+02  0.000000000E+00  0.00000E+00  9.000E+00
      21    -1     0     0   512   513  0.000000000E+00  0.000000000E+00 -2.418162401E+02  2.418162401E+02  0.000000000E+00  0.00000E+00  9.000E+00
       1     1     1     2   512     0 -4.013050131E+02 -2.125327364E+02  3.371004502E+02  5.655551176E+02  9.344061824E-06  0.00000E+00  9.000E+00
      21     1     1     2   511   513  4.075667596E+02  2.131262324E+02  2.914101682E+02  5.444752892E+02  6.607249480E-06  0.00000E+00  9.000E+00
      22     1     1     2     0     0 -6.261746542E+00 -5.934960244E-01  8.306522124E+00  1.041921384E+01  1.685873940E-07  0.00000E+00  9.000E+00
#rwgt            1         181   2.7253129088778824E-003        6024     5171589           0
<rwgt>
<wgt id='central'>  0.759661965E+04 </wgt>
<wgt id='sudakovwgt'>  0.482161508E-01 </wgt>
<wgt id='scales0.50.5'>  0.967069071E+04 </wgt>
<wgt id='scales0.51.0'>  0.904322248E+04 </wgt>
<wgt id='scales1.00.5'>  0.812371504E+04 </wgt>
<wgt id='scales1.02.0'>  0.711818061E+04 </wgt>
<wgt id='scales2.01.0'>  0.647472570E+04 </wgt>
<wgt id='scales2.02.0'>  0.606694385E+04 </wgt>
</rwgt>
<scales uborns=' 0.460419031E+03'> </scales>
</event>
<event>
      5  10001  1.33681E+01  4.90562E+02  7.29735E-03  9.90876E-02
       2    -1     0     0   512     0  0.000000000E+00  0.000000000E+00  1.068188148E+03  1.068188148E+03  0.000000000E+00  0.00000E+00  9.000E+00
       1    -1     0     0   514     0  0.000000000E+00  0.000000000E+00 -2.124936483E+03  2.124936483E+03  0.000000000E+00  0.00000E+00  9.000E+00
      22     1     1     2     0     0  8.098786290E+02  3.612506314E+02  3.156782182E+02  9.413066184E+02  1.078959322E-05  0.00000E+00  9.000E+00
       1     1     1     2   512     0 -1.071663810E+03 -7.539264472E+02 -1.065725945E+03  1.688976080E+03  2.642899792E-05  0.00000E+00  9.000E+00
       2     1     1     2   514     0  2.617851807E+02  3.926758158E+02 -3.067006087E+02  5.628419321E+02  1.572839976E-05  0.00000E+00  9.000E+00
#rwgt            1          92   1.7316678535929349E-003        6024     5172179           0
<rwgt>
<wgt id='central'>  0.133681107E+02 </wgt>
<wgt id='sudakovwgt'>  0.572726680E-03 </wgt>
<wgt id='scales0.50.5'>  0.172630262E+02 </wgt>
<wgt id='scales0.51.0'>  0.155663202E+02 </wgt>
<wgt id='scales1.00.5'>  0.148252032E+02 </wgt>
<wgt id='scales1.02.0'>  0.121310093E+02 </wgt>
<wgt id='scales2.01.0'>  0.116087480E+02 </wgt>
<wgt id='scales2.02.0'>  0.105344686E+02 </wgt>
</rwgt>
<scales uborns=' 0.139405218E+04'> </scales>
</event>
<event>
      4  10001  2.73783E+04  8.94427E-01  7.29735E-03  7.36788E-01
       1    -1     0     0   512     0  0.000000000E+00  0.000000000E+00  5.834907611E+02  5.834907611E+02  0.000000000E+00  0.00000E+00  9.000E+00
      21    -1     0     0   513   512  0.000000000E+00  0.000000000E+00 -3.772881488E+02  3.772881488E+02  0.000000000E+00  0.00000E+00  9.000E+00
       1     1     1     2   511     0  3.709683794E+02 -3.599518050E+00  3.972065730E+02  5.435104016E+02  7.629394531E-06  0.00000E+00  9.000E+00
      21     1     1     2   513   511 -3.709683794E+02  3.599518050E+00 -1.910039607E+02  4.172685083E+02  4.672030912E-06  0.00000E+00  9.000E+00
#rwgt            1         181   2.5985253042931662E-003        6024     5173899           0
<rwgt>
<wgt id='central'>  0.273783096E+05 </wgt>
<wgt id='sudakovwgt'>  0.217678730E+01 </wgt>
<wgt id='scales0.50.5'>  0.351763494E+05 </wgt>
<wgt id='scales0.51.0'>  0.327583062E+05 </wgt>
<wgt id='scales1.00.5'>  0.293992199E+05 </wgt>
<wgt id='scales1.02.0'>  0.255691151E+05 </wgt>
<wgt id='scales2.01.0'>  0.232360233E+05 </wgt>
<wgt id='scales2.02.0'>  0.217005641E+05 </wgt>
</rwgt>
<scales uborns=' 0.370985842E+03'> </scales>
</event>
<event>
      5  10001  6.46983E+01  6.89840E+01  7.29735E-03  1.31543E-01
       2    -1     0     0   511     0  0.000000000E+00  0.000000000E+00  2.501424197E+03  2.501424197E+03  0.000000000E+00  0.00000E+00  9.000E+00
      21    -1     0     0   514   512  0.000000000E+00  0.000000000E+00 -8.543583720E+02  8.543583720E+02  0.000000000E+00  0.00000E+00  9.000E+00
       2     1     1     2   514     0  5.235459518E+02 -9.100932137E+02  1.103753025E+03  1.523364947E+03  2.642899792E-05  0.00000E+00  9.000E+00
      21     1     1     2   511   512 -5.786051013E+02  8.685326295E+02 -2.195358920E+02  1.066456187E+03  1.477425898E-05  0.00000E+00  9.000E+00
      22     1     1     2     0     0  5.505914955E+01  4.156058416E+01  7.628486920E+02  7.659614344E+02  0.000000000E+00  0.00000E+00  9.000E+00
#rwgt            1         182   7.8035895267082635E-003        6024     5174752           0
<rwgt>
<wgt id='central'>  0.646982805E+02 </wgt>
<wgt id='sudakovwgt'>  0.294442852E-01 </wgt>
<wgt id='scales0.50.5'>  0.856705506E+02 </wgt>
<wgt id='scales0.51.0'>  0.757262424E+02 </wgt>
<wgt id='scales1.00.5'>  0.731944278E+02 </wgt>
<wgt id='scales1.02.0'>  0.576499451E+02 </wgt>
<wgt id='scales2.01.0'>  0.559368247E+02 </wgt>
<wgt id='scales2.02.0'>  0.498429615E+02 </wgt>
</rwgt>
<scales uborns=' 0.104620950E+04'> </scales>
</event>
<event>
      5  10001  3.63090E+02  4.85452E+02  7.29735E-03  9.92176E-02
       1    -1     0     0   512     0  0.000000000E+00  0.000000000E+00  3.607919663E+03  3.607919663E+03  0.000000000E+00  0.00000E+00  9.000E+00
       2    -1     0     0   513     0  0.000000000E+00  0.000000000E+00 -1.687321106E+02  1.687321106E+02  0.000000000E+00  0.00000E+00  9.000E+00
       1     1     1     2   513     0  3.488975643E+01 -6.126534142E+02  1.563481133E+03  1.679593627E+03  3.051757812E-05  0.00000E+00  9.000E+00
       2     1     1     2   512     0  8.661059318E+01  6.052123691E+02  1.878306712E+03  1.975302384E+03  2.157918644E-05  0.00000E+00  9.000E+00
      22     1     1     2     0     0 -1.215003496E+02  7.441045165E+00 -2.600291636E+00  1.217557622E+02  6.410894492E-06  0.00000E+00  9.000E+00
#rwgt            1          96   3.0394290195370083E-004        6024     5176495           0
<rwgt>
<wgt id='central'>  0.363090020E+03 </wgt>
<wgt id='sudakovwgt'>  0.103609917E-02 </wgt>
<wgt id='scales0.50.5'>  0.478768793E+03 </wgt>
<wgt id='scales0.51.0'>  0.427461951E+03 </wgt>
<wgt id='scales1.00.5'>  0.406670490E+03 </wgt>
<wgt id='scales1.02.0'>  0.326557013E+03 </wgt>
<wgt id='scales2.01.0'>  0.312371381E+03 </wgt>
<wgt id='scales2.02.0'>  0.280941544E+03 </wgt>
</rwgt>
<scales uborns=' 0.773329461E+03'> </scales>
</event>
<event>
      5  10001  1.12752E+04  3.28077E+00  7.29735E-03  2.85554E-01
      21    -1     0     0   513   514  0.000000000E+00  0.000000000E+00  4.406923483E+02  4.406923483E+02  0.000000000E+00  0.00000E+00  9.000E+00
       1    -1     0     0   514     0  0.000000000E+00  0.000000000E+00 -1.472662694E+03  1.472662694E+03  0.000000000E+00  0.00000E+00  9.000E+00
       1     1     1     2   511     0 -2.463148159E+02 -1.816060442E+02 -9.462587273E+02  9.945136112E+02  1.078959322E-05  0.00000E+00  9.000E+00
      21     1     1     2   513   511  3.480804872E+02  2.537182605E+02  2.924552799E+02  5.206371788E+02  8.529922400E-06  0.00000E+00  9.000E+00
      22     1     1     2     0     0 -1.017656713E+02 -7.211221627E+01 -3.781668981E+02  3.982042521E+02  7.629394531E-06  0.00000E+00  9.000E+00
#rwgt            1         186   4.8124017458196821E-003        6024     5184404           0
<rwgt>
<wgt id='central'>  0.112751511E+05 </wgt>
<wgt id='sudakovwgt'>  0.288336800E-01 </wgt>
<wgt id='scales0.50.5'>  0.150489830E+05 </wgt>
<wgt id='scales0.51.0'>  0.134429836E+05 </wgt>
<wgt id='scales1.00.5'>  0.126222198E+05 </wgt>
<wgt id='scales1.02.0'>  0.101418365E+05 </wgt>
<wgt id='scales2.01.0'>  0.959768158E+04 </wgt>
<wgt id='scales2.02.0'>  0.863293933E+04 </wgt>
</rwgt>
<scales uborns=' 0.430739847E+03'> </scales>
</event>
<event>
      5  10001  1.71253E+02  1.39924E+00  7.29735E-03  4.69755E-01
       1    -1     0     0   511     0  0.000000000E+00  0.000000000E+00  1.131895633E+03  1.131895633E+03  0.000000000E+00  0.00000E+00  9.000E+00
       2    -1     0     0   512     0  0.000000000E+00  0.000000000E+00 -3.068042833E+03  3.068042833E+03  0.000000000E+00  0.00000E+00  9.000E+00
       1     1     1     2   512     0  3.834993937E+02  7.934703779E+02  8.434055260E+02  1.219836016E+03  2.157918644E-05  0.00000E+00  9.000E+00
       2     1     1     2   511     0 -3.821854416E+02 -7.939514217E+02 -1.835476479E+03  2.036025166E+03  3.051757812E-05  0.00000E+00  9.000E+00
      22     1     1     2     0     0 -1.313952131E+00  4.810437385E-01 -9.440762465E+02  9.440772834E+02  0.000000000E+00  0.00000E+00  9.000E+00
#rwgt            1          96   3.1094926838244070E-003        6024     5185173           0
<rwgt>
<wgt id='central'>  0.171253141E+03 </wgt>
<wgt id='sudakovwgt'>  0.962285029E+00 </wgt>
<wgt id='scales0.50.5'>  0.223618129E+03 </wgt>
<wgt id='scales0.51.0'>  0.201096755E+03 </wgt>
<wgt id='scales1.00.5'>  0.190432090E+03 </wgt>
<wgt id='scales1.02.0'>  0.155073997E+03 </wgt>
<wgt id='scales2.01.0'>  0.147652700E+03 </wgt>
<wgt id='scales2.02.0'>  0.133703318E+03 </wgt>
</rwgt>
<scales uborns=' 0.881218082E+03'> </scales>
</event>
<event>
      5  10001  4.61894E+00  1.90323E+02  7.29735E-03  1.12438E-01
       1    -1     0     0   512     0  0.000000000E+00  0.000000000E+00  1.991134047E+03  1.991134047E+03  0.000000000E+00  0.00000E+00  9.000E+00
       2    -1     0     0   513     0  0.000000000E+00  0.000000000E+00 -1.832230904E+03  1.832230904E+03  0.000000000E+00  0.00000E+00  9.000E+00
       1     1     1     2   513     0  1.102651341E+03 -1.099794276E+03  8.631112624E+02  1.780547242E+03  4.448663250E-05  0.00000E+00  9.000E+00
       2     1     1     2   512     0 -1.297071154E+03  1.056086006E+03 -7.580550742E+02  1.836398303E+03  2.642899792E-05  0.00000E+00  9.000E+00
      22     1     1     2     0     0  1.944198130E+02  4.370827008E+01  5.384695504E+01  2.064194059E+02  4.523674479E-06  0.00000E+00  9.000E+00
#rwgt            1          96   3.3340495625813994E-003        6024     5265844           0
<rwgt>
<wgt id='central'>  0.461894185E+01 </wgt>
<wgt id='sudakovwgt'>  0.104609494E-02 </wgt>
<wgt id='scales0.50.5'>  0.603555198E+01 </wgt>
<wgt id='scales0.51.0'>  0.535994289E+01 </wgt>
<wgt id='scales1.00.5'>  0.520114730E+01 </wgt>
<wgt id='scales1.02.0'>  0.413242153E+01 </wgt>
<wgt id='scales2.01.0'>  0.402294015E+01 </wgt>
<wgt id='scales2.02.0'>  0.359919906E+01 </wgt>
</rwgt>
<scales uborns=' 0.170888116E+04'> </scales>
</event>
<event>
      5  10001  1.29135E+04  5.00967E+02  7.29735E-03  9.88281E-02
      21    -1     0     0   513   514  0.000000000E+00  0.000000000E+00  1.480100844E+02  1.480100844E+02  0.000000000E+00  0.00000E+00  9.000E+00
       2    -1     0     0   514     0  0.000000000E+00  0.000000000E+00 -3.486089752E+03  3.486089752E+03  0.000000000E+00  0.00000E+00  9.000E+00
      22     1     1     2     0     0 -2.232189256E+01  6.223957863E+00 -1.830961808E+03  1.831108447E+03  2.157918644E-05  0.00000E+00  9.000E+00
      21     1     1     2   513   511 -2.541752650E+02  2.755782623E+02 -1.752399550E+02  4.138326785E+02  1.561232142E-05  0.00000E+00  9.000E+00
       2     1     1     2   511     0  2.764971576E+02 -2.818022201E+02 -1.331877905E+03  1.389158711E+03  2.642899792E-05  0.00000E+00  9.000E+00
#rwgt            1         187   5.9538737763918742E-002        6024     5270777           0
<rwgt>
<wgt id='central'>  0.129134633E+05 </wgt>
<wgt id='sudakovwgt'>  0.383187635E-01 </wgt>
<wgt id='scales0.50.5'>  0.173540560E+05 </wgt>
<wgt id='scales0.51.0'>  0.154045014E+05 </wgt>
<wgt id='scales1.00.5'>  0.145477997E+05 </wgt>
<wgt id='scales1.02.0'>  0.115327704E+05 </wgt>
<wgt id='scales2.01.0'>  0.109873286E+05 </wgt>
<wgt id='scales2.02.0'>  0.981254793E+04 </wgt>
</rwgt>
<scales uborns=' 0.421001536E+03'> </scales>
</event>
<event>
      5  10001  1.81474E+02  2.54052E+02  7.29735E-03  1.07992E-01
      21    -1     0     0   512   514  0.000000000E+00  0.000000000E+00  1.618383963E+03  1.618383963E+03  0.000000000E+00  0.00000E+00  9.000E+00
       2    -1     0     0   511     0  0.000000000E+00  0.000000000E+00 -1.233983590E+03  1.233983590E+03  0.000000000E+00  0.00000E+00  9.000E+00
       2     1     1     2   512     0 -6.814012936E+02  5.530674598E+02 -7.225464519E+02  1.136778216E+03  3.051757812E-05  0.00000E+00  9.000E+00
      21     1     1     2   511   514  4.999138264E+02 -7.308446431E+02  1.156701870E+03  1.456711002E+03  3.737624730E-05  0.00000E+00  9.000E+00
      22     1     1     2     0     0  1.814874672E+02  1.777771833E+02 -4.975504534E+01  2.588783348E+02  4.370284743E-06  0.00000E+00  9.000E+00
#rwgt            1         187   4.9086592196756363E-003        6024     5271224           0
<rwgt>
<wgt id='central'>  0.181474423E+03 </wgt>
<wgt id='sudakovwgt'>  0.218821337E-01 </wgt>
<wgt id='scales0.50.5'>  0.243420270E+03 </wgt>
<wgt id='scales0.51.0'>  0.213140780E+03 </wgt>
<wgt id='scales1.00.5'>  0.207254802E+03 </wgt>
<wgt id='scales1.02.0'>  0.160385162E+03 </wgt>
<wgt id='scales2.01.0'>  0.156439079E+03 </wgt>
<wgt id='scales2.02.0'>  0.138259514E+03 </wgt>
</rwgt>
<scales uborns=' 0.872339718E+03'> </scales>
</event>
<event>
      4  10001  3.75005E+02  8.94427E-01  7.29735E-03  7.46741E-01
      21    -1     0     0   513   515  0.000000000E+00  0.000000000E+00  6.221086942E+02  6.221086942E+02  0.000000000E+00  0.00000E+00  9.000E+00
       3    -1     0     0   512     0  0.000000000E+00  0.000000000E+00 -9.654997266E+02  9.654997266E+02  0.000000000E+00  0.00000E+00  9.000E+00
       3     1     1     2   513     0 -5.743134019E+01  7.668778201E+02 -2.701820843E+02  8.151063173E+02  1.206313194E-05  0.00000E+00  9.000E+00
      21     1     1     2   512   515  5.743134019E+01 -7.668778201E+02 -7.320894811E+01  7.725021035E+02  1.362119375E-05  0.00000E+00  9.000E+00
#rwgt            1         188   3.4242548082568844E-004        6024     5271413           0
<rwgt>
<wgt id='central'>  0.375004597E+03 </wgt>
<wgt id='sudakovwgt'>  0.200973893E+01 </wgt>
<wgt id='scales0.50.5'>  0.487658543E+03 </wgt>
<wgt id='scales0.51.0'>  0.441538681E+03 </wgt>
<wgt id='scales1.00.5'>  0.414175246E+03 </wgt>
<wgt id='scales1.02.0'>  0.341321714E+03 </wgt>
<wgt id='scales2.01.0'>  0.322591511E+03 </wgt>
<wgt id='scales2.02.0'>  0.293616052E+03 </wgt>
</rwgt>
<scales uborns=' 0.769025325E+03'> </scales>
</event>
<event>
      5  10001  3.65547E+04  7.72297E+00  7.29735E-03  2.09692E-01
      21    -1     0     0   511   514  0.000000000E+00  0.000000000E+00  2.482677541E+02  2.482677541E+02  0.000000000E+00  0.00000E+00  9.000E+00
       4    -1     0     0   513     0  0.000000000E+00  0.000000000E+00 -1.724134568E+03  1.724134568E+03  0.000000000E+00  0.00000E+00  9.000E+00
       4     1     1     2   511     0 -2.136402867E+02  2.863550256E+02 -8.010081583E+02  8.770720851E+02  1.078959322E-05  0.00000E+00  9.000E+00
      21     1     1     2   513   514  2.089967350E+02 -2.801839917E+02  6.490923972E+01  3.555220300E+02  9.725607898E-06  0.00000E+00  9.000E+00
      22     1     1     2     0     0  4.643551774E+00 -6.171033956E+00 -7.397678950E+02  7.398082067E+02  0.000000000E+00  0.00000E+00  9.000E+00
#rwgt            1         189   2.4156126930805418E-004        6024     5273558           0
<rwgt>
<wgt id='central'>  0.365547433E+05 </wgt>
<wgt id='sudakovwgt'>  0.433391953E-01 </wgt>
<wgt id='scales0.50.5'>  0.445656951E+05 </wgt>
<wgt id='scales0.51.0'>  0.437899190E+05 </wgt>
<wgt id='scales1.00.5'>  0.372022980E+05 </wgt>
<wgt id='scales1.02.0'>  0.356084882E+05 </wgt>
<wgt id='scales2.01.0'>  0.309934210E+05 </wgt>
<wgt id='scales2.02.0'>  0.301911620E+05 </wgt>
</rwgt>
<scales uborns=' 0.353397095E+03'> </scales>
</event>
<event>
      5  10001  1.18125E+03  3.34934E+01  7.29735E-03  1.49790E-01
      -2    -1     0     0     0   512  0.000000000E+00  0.000000000E+00  8.793400995E+02  8.793400995E+02  0.000000000E+00  0.00000E+00  9.000E+00
      21    -1     0     0   512   511  0.000000000E+00  0.000000000E+00 -1.060935168E+03  1.060935168E+03  0.000000000E+00  0.00000E+00  9.000E+00
      -2     1     1     2     0   514 -5.102446191E+02 -3.940780147E+02  5.664956361E+02  8.582332775E+02  1.321449896E-05  0.00000E+00  9.000E+00
      21     1     1     2   514   511  5.017736137E+02  3.616734911E+02 -8.054944301E+02  1.015581484E+03  1.078959322E-05  0.00000E+00  9.000E+00
      22     1     1     2     0     0  8.471005346E+00  3.240452358E+01  5.740372585E+01  6.646050573E+01  6.743495762E-07  0.00000E+00  9.000E+00
#rwgt            1         192   4.2282731827242607E-004        6024     5285669           0
<rwgt>
<wgt id='central'>  0.118124982E+04 </wgt>
<wgt id='sudakovwgt'>  0.370431317E-01 </wgt>
<wgt id='scales0.50.5'>  0.158236720E+04 </wgt>
<wgt id='scales0.51.0'>  0.139646999E+04 </wgt>
<wgt id='scales1.00.5'>  0.133849726E+04 </wgt>
<wgt id='scales1.02.0'>  0.105109839E+04 </wgt>
<wgt id='scales2.01.0'>  0.101268135E+04 </wgt>
<wgt id='scales2.02.0'>  0.901102840E+03 </wgt>
</rwgt>
<scales uborns=' 0.631471449E+03'> </scales>
</event>
<event>
      5  10001  3.66962E+04  9.08646E-01  7.29735E-03  7.36556E-01
       2    -1     0     0   511     0  0.000000000E+00  0.000000000E+00  1.443907160E+03  1.443907160E+03  0.000000000E+00  0.00000E+00  9.000E+00
      21    -1     0     0   515   511  0.000000000E+00  0.000000000E+00 -4.663302183E+02  4.663302183E+02  0.000000000E+00  0.00000E+00  9.000E+00
       2     1     1     2   513     0  5.450550247E+01  1.061843750E+02  4.558223637E+02  4.711899813E+02  0.000000000E+00  0.00000E+00  9.000E+00
      21     1     1     2   515   513 -1.606346233E+02 -3.145219498E+02 -3.733415030E+02  5.139177143E+02  1.078959322E-05  0.00000E+00  9.000E+00
      22     1     1     2     0     0  1.061291209E+02  2.083375748E+02  8.950960811E+02  9.251296827E+02  0.000000000E+00  0.00000E+00  9.000E+00
#rwgt            1         182   8.4351179247153293E-003        6024     5286396           0
<rwgt>
<wgt id='central'>  0.366961949E+05 </wgt>
<wgt id='sudakovwgt'>  0.148276191E+00 </wgt>
<wgt id='scales0.50.5'>  0.487814526E+05 </wgt>
<wgt id='scales0.51.0'>  0.439601282E+05 </wgt>
<wgt id='scales1.00.5'>  0.407208535E+05 </wgt>
<wgt id='scales1.02.0'>  0.332782594E+05 </wgt>
<wgt id='scales2.01.0'>  0.311129808E+05 </wgt>
<wgt id='scales2.02.0'>  0.282150698E+05 </wgt>
</rwgt>
<scales uborns=' 0.353167918E+03'> </scales>
</event>
<event>
      5  10001  1.86081E+02  1.54830E+01  7.29735E-03  1.76096E-01
       2    -1     0     0   513     0  0.000000000E+00  0.000000000E+00  1.451486586E+03  1.451486586E+03  0.000000000E+00  0.00000E+00  9.000E+00
      21    -1     0     0   512   511  0.000000000E+00  0.000000000E+00 -5.794757186E+02  5.794757186E+02  0.000000000E+00  0.00000E+00  9.000E+00
       2     1     1     2   512     0  7.599477554E+02  4.225150138E+02  7.135475909E+02  1.124806513E+03  2.018548058E-05  0.00000E+00  9.000E+00
      21     1     1     2   513   511 -7.656452139E+02 -4.081184114E+02  1.350302880E+02  8.780697068E+02  2.886342230E-05  0.00000E+00  9.000E+00
      22     1     1     2     0     0  5.697458494E+00 -1.439660241E+01  2.343298804E+01  2.808608415E+01  3.371747881E-07  0.00000E+00  9.000E+00
#rwgt            1         182   7.3853210379580102E-003        6024     5305872           0
<rwgt>
<wgt id='central'>  0.186081246E+03 </wgt>
<wgt id='sudakovwgt'>  0.218177724E+00 </wgt>
<wgt id='scales0.50.5'>  0.242176611E+03 </wgt>
<wgt id='scales0.51.0'>  0.218570267E+03 </wgt>
<wgt id='scales1.00.5'>  0.206178391E+03 </wgt>
<wgt id='scales1.02.0'>  0.168972317E+03 </wgt>
<wgt id='scales2.01.0'>  0.160398959E+03 </wgt>
<wgt id='scales2.02.0'>  0.145651537E+03 </wgt>
</rwgt>
<scales uborns=' 0.868530735E+03'> </scales>
</event>
<event>
      5  10001  6.09880E+01  1.34511E+03  7.29735E-03  8.80033E-02
       2    -1     0     0   511     0  0.000000000E+00  0.000000000E+00  1.446475421E+03  1.446475421E+03  0.000000000E+00  0.00000E+00  9.000E+00
      21    -1     0     0   514   515  0.000000000E+00  0.000000000E+00 -9.420765917E+02  9.420765917E+02  0.000000000E+00  0.00000E+00  9.000E+00
      22     1     1     2     0     0  6.128582505E+01 -2.670507589E+02  1.070070871E+01  2.742016874E+02  3.444715327E-06  0.00000E+00  9.000E+00
      21     1     1     2   511   515 -9.255515773E+02  2.524600999E+02 -2.305193574E+02  9.866716772E+02  1.549537354E-05  0.00000E+00  9.000E+00
       2     1     1     2   514     0  8.642657523E+02  1.459065904E+01  7.242174777E+02  1.127678648E+03  1.525878906E-05  0.00000E+00  9.000E+00
#rwgt            1         182   6.0330147288298929E-003        6024     5309697           0
<rwgt>
<wgt id='central'>  0.609880361E+02 </wgt>
<wgt id='sudakovwgt'>  0.140719347E+00 </wgt>
<wgt id='scales0.50.5'>  0.804375161E+02 </wgt>
<wgt id='scales0.51.0'>  0.713695855E+02 </wgt>
<wgt id='scales1.00.5'>  0.687368884E+02 </wgt>
<wgt id='scales1.02.0'>  0.545333062E+02 </wgt>
<wgt id='scales2.01.0'>  0.527377418E+02 </wgt>
<wgt id='scales2.02.0'>  0.471562179E+02 </wgt>
</rwgt>
<scales uborns=' 0.105727720E+04'> </scales>
</event>
<event>
      5  10001  5.26170E+01  2.45133E+02  7.29735E-03  1.08523E-01
       2    -1     0     0   514     0  0.000000000E+00  0.000000000E+00  1.250798826E+03  1.250798826E+03  0.000000000E+00  0.00000E+00  9.000E+00
      21    -1     0     0   512   513  0.000000000E+00  0.000000000E+00 -1.176458890E+03  1.176458890E+03  0.000000000E+00  0.00000E+00  9.000E+00
      22     1     1     2     0     0  6.672287261E+00  2.331665479E+01  1.986624364E+01  3.135049353E+01  5.331201500E-07  0.00000E+00  9.000E+00
      21     1     1     2   514   513 -3.391663869E+02 -1.030881493E+03 -5.043717194E+02  1.196721071E+03  1.078959322E-05  0.00000E+00  9.000E+00
       2     1     1     2   512     0  3.324940996E+02  1.007564838E+03  5.588454117E+02  1.199186151E+03  3.890243159E-05  0.00000E+00  9.000E+00
#rwgt            1         182   4.8977446860676635E-003        6024     5310413           0
<rwgt>
<wgt id='central'>  0.526169725E+02 </wgt>
<wgt id='sudakovwgt'>  0.524003193E-03 </wgt>
<wgt id='scales0.50.5'>  0.696032279E+02 </wgt>
<wgt id='scales0.51.0'>  0.615436725E+02 </wgt>
<wgt id='scales1.00.5'>  0.595075480E+02 </wgt>
<wgt id='scales1.02.0'>  0.469095068E+02 </wgt>
<wgt id='scales2.01.0'>  0.455180251E+02 </wgt>
<wgt id='scales2.02.0'>  0.405805749E+02 </wgt>
</rwgt>
<scales uborns=' 0.108553035E+04'> </scales>
</event>
<event>
      5  10001  1.96531E+03  5.56316E+01  7.29735E-03  1.36481E-01
      -4    -1     0     0     0   511  0.000000000E+00  0.000000000E+00  8.448104904E+02  8.448104904E+02  0.000000000E+00  0.00000E+00  9.000E+00
      21    -1     0     0   515   513  0.000000000E+00  0.000000000E+00 -5.602077091E+02  5.602077091E+02  0.000000000E+00  0.00000E+00  9.000E+00
      -4     1     1     2     0   513 -2.246962004E+02 -3.922773228E+02  3.543928203E+02  5.744250617E+02  1.477425898E-05  0.00000E+00  9.000E+00
      21     1     1     2   515   511  2.734257017E+02  5.072476257E+02 -2.360004967E+02  6.227021781E+02  6.031565972E-06  0.00000E+00  9.000E+00
      22     1     1     2     0     0 -4.872950129E+01 -1.149703029E+02  1.662104577E+02  2.078909596E+02  3.814697266E-06  0.00000E+00  9.000E+00
#rwgt            1         194   1.6886139941854435E-004        6024     5311045           0
<rwgt>
<wgt id='central'>  0.196530546E+04 </wgt>
<wgt id='sudakovwgt'>  0.438544066E-01 </wgt>
<wgt id='scales0.50.5'>  0.244581237E+04 </wgt>
<wgt id='scales0.51.0'>  0.232768268E+04 </wgt>
<wgt id='scales1.00.5'>  0.206504931E+04 </wgt>
<wgt id='scales1.02.0'>  0.186440722E+04 </wgt>
<wgt id='scales2.01.0'>  0.168223249E+04 </wgt>
<wgt id='scales2.02.0'>  0.159586345E+04 </wgt>
</rwgt>
<scales uborns=' 0.578978798E+03'> </scales>
</event>
<event>
      4  10001  1.77291E+04  8.94427E-01  7.29735E-03  7.50683E-01
       1    -1     0     0   514     0  0.000000000E+00  0.000000000E+00  2.202344753E+02  2.202344753E+02  0.000000000E+00  0.00000E+00  9.000E+00
      21    -1     0     0   512   513  0.000000000E+00  0.000000000E+00 -8.274077754E+02  8.274077754E+02  0.000000000E+00  0.00000E+00  9.000E+00
       1     1     1     2   512     0  3.696076926E+01  3.974033524E+02 -1.177781895E+02  4.161336622E+02  3.568322551E-06  0.00000E+00  9.000E+00
      21     1     1     2   514   513 -3.696076926E+01 -3.974033524E+02 -4.893951106E+02  6.315085884E+02  1.321449896E-05  0.00000E+00  9.000E+00
#rwgt            1         181   1.0207921831214602E-003        6024     5311959           0
<rwgt>
<wgt id='central'>  0.177291496E+05 </wgt>
<wgt id='sudakovwgt'>  0.286220034E+01 </wgt>
<wgt id='scales0.50.5'>  0.228442901E+05 </wgt>
<wgt id='scales0.51.0'>  0.211757219E+05 </wgt>
<wgt id='scales1.00.5'>  0.191260872E+05 </wgt>
<wgt id='scales1.02.0'>  0.164911513E+05 </wgt>
<wgt id='scales2.01.0'>  0.150687707E+05 </wgt>
<wgt id='scales2.02.0'>  0.140165816E+05 </wgt>
</rwgt>
<scales uborns=' 0.399118432E+03'> </scales>
</event>
<event>
      5  10001  2.26656E+02  1.52930E+00  7.29735E-03  4.27951E-01
      21    -1     0     0   512   513  0.000000000E+00  0.000000000E+00  1.177821830E+03  1.177821830E+03  0.000000000E+00  0.00000E+00  9.000E+00
      -1    -1     0     0     0   511  0.000000000E+00  0.000000000E+00 -9.067932026E+02  9.067932026E+02  0.000000000E+00  0.00000E+00  9.000E+00
      -1     1     1     2     0   513 -8.351990338E+02 -8.766367293E+01 -3.514564591E+02  9.103647557E+02  1.618438983E-05  0.00000E+00  9.000E+00
      21     1     1     2   512   511  8.339019591E+02  8.847383747E+01  7.026649585E+02  1.094055822E+03  2.018548058E-05  0.00000E+00  9.000E+00
      22     1     1     2     0     0  1.297074749E+00 -8.101645418E-01 -8.017987197E+01  8.019445516E+01  9.536743164E-07  0.00000E+00  9.000E+00
#rwgt            1         196   6.1508342514784888E-004        6024     5312967           0
<rwgt>
<wgt id='central'>  0.226655623E+03 </wgt>
<wgt id='sudakovwgt'>  0.345626674E-01 </wgt>
<wgt id='scales0.50.5'>  0.304393621E+03 </wgt>
<wgt id='scales0.51.0'>  0.266408211E+03 </wgt>
<wgt id='scales1.00.5'>  0.258973401E+03 </wgt>
<wgt id='scales1.02.0'>  0.200151806E+03 </wgt>
<wgt id='scales2.01.0'>  0.195262840E+03 </wgt>
<wgt id='scales2.02.0'>  0.172429629E+03 </wgt>
</rwgt>
<scales uborns=' 0.839184351E+03'> </scales>
</event>
<event>
      5  10001  3.03591E+04  2.17706E+01  7.29735E-03  1.63385E-01
       2    -1     0     0   512     0  0.000000000E+00  0.000000000E+00  1.696362437E+03  1.696362437E+03  0.000000000E+00  0.00000E+00  9.000E+00
      -1    -1     0     0     0   512  0.000000000E+00  0.000000000E+00 -1.352330756E+02  1.352330756E+02  0.000000000E+00  0.00000E+00  9.000E+00
      22     1     1     2     0     0  2.548963765E+00 -2.221905953E+00  1.277489222E+01  1.321483838E+01  1.685873940E-07  0.00000E+00  9.000E+00
      -1     1     1     2     0   513 -2.600469601E+02  2.555498185E+02  1.866800352E+02  4.096090413E+02  6.031565972E-06  0.00000E+00  9.000E+00
       2     1     1     2   513     0  2.574979963E+02 -2.533279125E+02  1.361674434E+03  1.408771633E+03  2.642899792E-05  0.00000E+00  9.000E+00
#rwgt            1         145   5.3317815278869742E-004        6024     5313903           0
<rwgt>
<wgt id='central'>  0.303590579E+05 </wgt>
<wgt id='sudakovwgt'>  0.104627991E-02 </wgt>
<wgt id='scales0.50.5'>  0.378314858E+05 </wgt>
<wgt id='scales0.51.0'>  0.363402206E+05 </wgt>
<wgt id='scales1.00.5'>  0.316049226E+05 </wgt>
<wgt id='scales1.02.0'>  0.291651565E+05 </wgt>
<wgt id='scales2.01.0'>  0.257567699E+05 </wgt>
<wgt id='scales2.02.0'>  0.247438239E+05 </wgt>
</rwgt>
<scales uborns=' 0.364597612E+03'> </scales>
</event>
<event>
      5  10001  2.29372E+02  3.84848E+00  7.29735E-03  2.67485E-01
      -3    -1     0     0     0   511  0.000000000E+00  0.000000000E+00  1.628302213E+03  1.628302213E+03  0.000000000E+00  0.00000E+00  9.000E+00
       1    -1     0     0   511     0  0.000000000E+00  0.000000000E+00 -7.112641161E+02  7.112641161E+02  0.000000000E+00  0.00000E+00  9.000E+00
       1     1     1     2   512     0 -5.312088374E+02  6.449841792E+02  1.134139883E+03  1.408708875E+03  1.525878906E-05  0.00000E+00  9.000E+00
      -3     1     1     2     0   512  5.329018163E+02 -6.484402814E+02 -2.670349113E+02  8.807762419E+02  2.587253564E-05  0.00000E+00  9.000E+00
      22     1     1     2     0     0 -1.692978962E+00  3.456102249E+00  4.993312508E+01  5.008121205E+01  6.743495762E-07  0.00000E+00  9.000E+00
#rwgt            1         169   1.4623612365749971E-006        6024     5349504           0
<rwgt>
<wgt id='central'>  0.229371635E+03 </wgt>
<wgt id='sudakovwgt'>  0.759072735E-01 </wgt>
<wgt id='scales0.50.5'>  0.294905799E+03 </wgt>
<wgt id='scales0.51.0'>  0.269611513E+03 </wgt>
<wgt id='scales1.00.5'>  0.250891114E+03 </wgt>
<wgt id='scales1.02.0'>  0.210506869E+03 </wgt>
<wgt id='scales2.01.0'>  0.197595851E+03 </wgt>
<wgt id='scales2.02.0'>  0.181344209E+03 </wgt>
</rwgt>
<scales uborns=' 0.837446947E+03'> </scales>
</event>
<event>
      5  10001  5.60830E+02  1.05725E+02  7.29735E-03  1.22750E-01
       2    -1     0     0   514     0  0.000000000E+00  0.000000000E+00  2.116414101E+03  2.116414101E+03  0.000000000E+00  0.00000E+00  9.000E+00
      21    -1     0     0   512   514  0.000000000E+00  0.000000000E+00 -1.044999844E+03  1.044999844E+03  0.000000000E+00  0.00000E+00  9.000E+00
       2     1     1     2   513     0 -2.667876174E+02  6.111842649E+02  1.373626269E+03  1.526948253E+03  1.525878906E-05  0.00000E+00  9.000E+00
      21     1     1     2   512   513  3.329233133E+02 -6.936698189E+02 -8.091766187E+02  1.116594175E+03  1.525878906E-05  0.00000E+00  9.000E+00
      22     1     1     2     0     0 -6.613569593E+01  8.248555400E+01  5.069646061E+02  5.178715176E+02  7.629394531E-06  0.00000E+00  9.000E+00
#rwgt            1         182   6.8422140734966264E-003        6024     5351583           0
<rwgt>
<wgt id='central'>  0.560829672E+03 </wgt>
<wgt id='sudakovwgt'>  0.240888974E-01 </wgt>
<wgt id='scales0.50.5'>  0.755489223E+03 </wgt>
<wgt id='scales0.51.0'>  0.661259580E+03 </wgt>
<wgt id='scales1.00.5'>  0.640748404E+03 </wgt>
<wgt id='scales1.02.0'>  0.495429834E+03 </wgt>
<wgt id='scales2.01.0'>  0.481872334E+03 </wgt>
<wgt id='scales2.02.0'>  0.425679671E+03 </wgt>
</rwgt>
<scales uborns=' 0.717468561E+03'> </scales>
</event>
<event>
      5  10001  4.28379E+04  2.66750E+01  7.29735E-03  1.56670E-01
      21    -1     0     0   511   515  0.000000000E+00  0.000000000E+00  5.576463540E+02  5.576463540E+02  0.000000000E+00  0.00000E+00  9.000E+00
       2    -1     0     0   513     0  0.000000000E+00  0.000000000E+00 -1.591714799E+03  1.591714799E+03  0.000000000E+00  0.00000E+00  9.000E+00
      22     1     1     2     0     0 -1.245729463E+01  4.708456609E+01 -2.331842174E+02  2.382163298E+02  2.697398305E-06  0.00000E+00  9.000E+00
      21     1     1     2   513   515  8.644896700E+01 -3.330592086E+02  4.833812634E+02  5.933458571E+02  7.629394531E-06  0.00000E+00  9.000E+00
       2     1     1     2   511     0 -7.399167237E+01  2.859746425E+02 -1.284265491E+03  1.317798966E+03  2.157918644E-05  0.00000E+00  9.000E+00
#rwgt            1         187   1.4946065320110453E-002        6024     5352811           0
<rwgt>
<wgt id='central'>  0.428379185E+05 </wgt>
<wgt id='sudakovwgt'>  0.817836213E-03 </wgt>
<wgt id='scales0.50.5'>  0.576563686E+05 </wgt>
<wgt id='scales0.51.0'>  0.513505427E+05 </wgt>
<wgt id='scales1.00.5'>  0.480983768E+05 </wgt>
<wgt id='scales1.02.0'>  0.384410664E+05 </wgt>
<wgt id='scales2.01.0'>  0.363008611E+05 </wgt>
<wgt id='scales2.02.0'>  0.325749818E+05 </wgt>
</rwgt>
<scales uborns=' 0.344108132E+03'> </scales>
</event>
<event>
      5  10001  2.41549E+03  1.30925E+01  7.29735E-03  1.83135E-01
       3    -1     0     0   512     0  0.000000000E+00  0.000000000E+00  7.258708761E+02  7.258708761E+02  0.000000000E+00  0.00000E+00  9.000E+00
       2    -1     0     0   511     0  0.000000000E+00  0.000000000E+00 -7.789011056E+02  7.789011056E+02  0.000000000E+00  0.00000E+00  9.000E+00
      22     1     1     2     0     0  4.833775894E+02  2.412468998E+02  4.740565367E+02  7.187374769E+02  0.000000000E+00  0.00000E+00  9.000E+00
       2     1     1     2   512     0 -4.957441549E+02 -2.546479875E+02 -5.280782235E+02  7.677724108E+02  1.078959322E-05  0.00000E+00  9.000E+00
       3     1     1     2   511     0  1.236656547E+01  1.340108767E+01  9.914572840E-01  1.826209407E+01  4.937661149E-07  0.00000E+00  9.000E+00
#rwgt            1          98   1.6825625400224408E-004        6024     5353893           0
<rwgt>
<wgt id='central'>  0.241549157E+04 </wgt>
<wgt id='sudakovwgt'>  0.307296456E-02 </wgt>
<wgt id='scales0.50.5'>  0.299791339E+04 </wgt>
<wgt id='scales0.51.0'>  0.286304132E+04 </wgt>
<wgt id='scales1.00.5'>  0.252927883E+04 </wgt>
<wgt id='scales1.02.0'>  0.230852110E+04 </wgt>
<wgt id='scales2.01.0'>  0.206625071E+04 </wgt>
<wgt id='scales2.02.0'>  0.197474772E+04 </wgt>
</rwgt>
<scales uborns=' 0.559025159E+03'> </scales>
</event>
<event>
      5  10001  1.27282E+01  3.38786E+01  7.29735E-03  1.49460E-01
      21    -1     0     0   511   513  0.000000000E+00  0.000000000E+00  1.134387499E+03  1.134387499E+03  0.000000000E+00  0.00000E+00  9.000E+00
       2    -1     0     0   514     0  0.000000000E+00  0.000000000E+00 -1.893448694E+03  1.893448694E+03  0.000000000E+00  0.00000E+00  9.000E+00
       2     1     1     2   511     0  1.394107537E+03 -1.823841355E+02 -5.405386946E+02  1.506314004E+03  2.642899792E-05  0.00000E+00  9.000E+00
      21     1     1     2   514   513 -1.391335093E+03  2.161490593E+02 -1.151336334E+02  1.412724145E+03  4.545736423E-05  0.00000E+00  9.000E+00
      22     1     1     2     0     0 -2.772444279E+00 -3.376492375E+01 -1.033888669E+02  1.087980437E+02  1.348699152E-06  0.00000E+00  9.000E+00
#rwgt            1         187   5.4776558841164490E-003        6024     5369359           0
<rwgt>
<wgt id='central'>  0.127282482E+02 </wgt>
<wgt id='sudakovwgt'>  0.464627362E-01 </wgt>
<wgt id='scales0.50.5'>  0.169308125E+02 </wgt>
<wgt id='scales0.51.0'>  0.148188400E+02 </wgt>
<wgt id='scales1.00.5'>  0.145422157E+02 </wgt>
<wgt id='scales1.02.0'>  0.112393710E+02 </wgt>
<wgt id='scales2.01.0'>  0.110545695E+02 </wgt>
<wgt id='scales2.02.0'>  0.976150649E+01 </wgt>
</rwgt>
<scales uborns=' 0.140690399E+04'> </scales>
</event>
<event>
      5  10001  8.22154E+01  3.73101E+02  7.29735E-03  1.02603E-01
      21    -1     0     0   512   515  0.000000000E+00  0.000000000E+00  6.588049844E+02  6.588049844E+02  0.000000000E+00  0.00000E+00  9.000E+00
      21    -1     0     0   515   511  0.000000000E+00  0.000000000E+00 -1.551823496E+03  1.551823496E+03  0.000000000E+00  0.00000E+00  9.000E+00
       2     1     1     2   512     0 -6.705086932E+02 -5.937984493E+02 -7.061181031E+01  8.984233600E+02  1.883355871E-05  0.00000E+00  9.000E+00
      -2     1     1     2     0   511  6.395507309E+02  5.607928890E+02 -5.000617705E+02  9.866993342E+02  5.394796609E-06  0.00000E+00  9.000E+00
      22     1     1     2     0     0  3.095796228E+01  3.300556027E+01 -3.223449304E+02  3.255057858E+02  3.814697266E-06  0.00000E+00  9.000E+00
#rwgt            1         202   3.9206209033566325E-005        6024     5370283           0
<rwgt>
<wgt id='central'>  0.822153911E+02 </wgt>
<wgt id='sudakovwgt'>  0.214910844E-01 </wgt>
<wgt id='scales0.50.5'>  0.113490336E+03 </wgt>
<wgt id='scales0.51.0'>  0.963056239E+02 </wgt>
<wgt id='scales1.00.5'>  0.968858616E+02 </wgt>
<wgt id='scales1.02.0'>  0.705630316E+02 </wgt>
<wgt id='scales2.01.0'>  0.710337004E+02 </wgt>
<wgt id='scales2.02.0'>  0.609661116E+02 </wgt>
</rwgt>
<scales uborns=' 0.100262362E+04'> </scales>
</event>
<event>
      5  10001  6.63859E+03  2.36603E+01  7.29735E-03  1.60563E-01
       2    -1     0     0   511     0  0.000000000E+00  0.000000000E+00  1.584790723E+03  1.584790723E+03  0.000000000E+00  0.00000E+00  9.000E+00
       2    -1     0     0   513     0  0.000000000E+00  0.000000000E+00 -1.335130193E+03  1.335130193E+03  0.000000000E+00  0.00000E+00  9.000E+00
       2     1     1     2   513     0  4.529458861E+02 -7.561775296E+01  1.180380233E+03  1.266560505E+03  2.642899792E-05  0.00000E+00  9.000E+00
       2     1     1     2   511     0 -4.762204270E+02  7.987267764E+01 -1.246466202E+03  1.336728668E+03  2.157918644E-05  0.00000E+00  9.000E+00
      22     1     1     2     0     0  2.327454094E+01 -4.254924679E+00  3.157464995E+02  3.166317429E+02  0.000000000E+00  0.00000E+00  9.000E+00
#rwgt            1          97   3.6891490450338045E-003        6024     5370387           0
<rwgt>
<wgt id='central'>  0.663859292E+04 </wgt>
<wgt id='sudakovwgt'>  0.873998916E-01 </wgt>
<wgt id='scales0.50.5'>  0.858516083E+04 </wgt>
<wgt id='scales0.51.0'>  0.789865082E+04 </wgt>
<wgt id='scales1.00.5'>  0.721558202E+04 </wgt>
<wgt id='scales1.02.0'>  0.613947072E+04 </wgt>
<wgt id='scales2.01.0'>  0.566064252E+04 </wgt>
<wgt id='scales2.02.0'>  0.523504976E+04 </wgt>
</rwgt>
<scales uborns=' 0.471023876E+03'> </scales>
</event>
<event>
      5  10001  9.67702E+00  7.27105E+01  7.29735E-03  1.30390E-01
       2    -1     0     0   513     0  0.000000000E+00  0.000000000E+00  3.351661833E+03  3.351661833E+03  0.000000000E+00  0.00000E+00  9.000E+00
      21    -1     0     0   512   514  0.000000000E+00  0.000000000E+00 -7.051260656E+02  7.051260656E+02  0.000000000E+00  0.00000E+00  9.000E+00
      22     1     1     2     0     0 -3.109032723E+02  5.379571087E+02  7.526076153E+02  9.759492395E+02  1.868812365E-05  0.00000E+00  9.000E+00
      21     1     1     2   513   514  6.909781620E+02 -1.309770449E+03  7.811094294E+02  1.674240542E+03  2.412626389E-05  0.00000E+00  9.000E+00
       2     1     1     2   512     0 -3.800748897E+02  7.718133407E+02  1.112818723E+03  1.406598118E+03  1.525878906E-05  0.00000E+00  9.000E+00
#rwgt            1         182   7.3073662210330105E-003        6024     5406334           0
<rwgt>
<wgt id='central'>  0.967701654E+01 </wgt>
<wgt id='sudakovwgt'>  0.975876290E-03 </wgt>
<wgt id='scales0.50.5'>  0.130983290E+02 </wgt>
<wgt id='scales0.51.0'>  0.112564916E+02 </wgt>
<wgt id='scales1.00.5'>  0.112604172E+02 </wgt>
<wgt id='scales1.02.0'>  0.839968701E+01 </wgt>
<wgt id='scales2.01.0'>  0.841098937E+01 </wgt>
<wgt id='scales2.02.0'>  0.730076802E+01 </wgt>
</rwgt>
<scales uborns=' 0.148145139E+04'> </scales>
</event>
<event>
      5  10001  6.80012E+06  3.88603E+00  7.29735E-03  2.66463E-01
      21    -1     0     0   512   515  0.000000000E+00  0.000000000E+00  3.176598668E+02  3.176598668E+02  0.000000000E+00  0.00000E+00  9.000E+00
       2    -1     0     0   515     0  0.000000000E+00  0.000000000E+00 -8.208810310E+02  8.208810310E+02  0.000000000E+00  0.00000E+00  9.000E+00
      22     1     1     2     0     0 -4.122737344E+00 -2.894259199E+01 -1.618587502E+02  1.644777359E+02  1.907348633E-06  0.00000E+00  9.000E+00
      21     1     1     2   512   511  1.908734695E+01  1.461959769E+02  2.934145506E+02  3.283743123E+02  6.607249480E-06  0.00000E+00  9.000E+00
       2     1     1     2   511     0 -1.496460961E+01 -1.172533849E+02 -6.347769647E+02  6.456888497E+02  0.000000000E+00  0.00000E+00  9.000E+00
#rwgt            1         187   6.7784267781805319E-003        6024     5408236           0
<rwgt>
<wgt id='central'>  0.680011708E+07 </wgt>
<wgt id='sudakovwgt'>  0.773283689E-01 </wgt>
<wgt id='scales0.50.5'>  0.893906397E+07 </wgt>
<wgt id='scales0.51.0'>  0.834852003E+07 </wgt>
<wgt id='scales1.00.5'>  0.728113576E+07 </wgt>
<wgt id='scales1.02.0'>  0.636172712E+07 </wgt>
<wgt id='scales2.01.0'>  0.565065619E+07 </wgt>
<wgt id='scales2.02.0'>  0.528636741E+07 </wgt>
</rwgt>
<scales uborns=' 0.147437277E+03'> </scales>
</event>
<event>
      5  10001  1.54647E+05  2.23880E+01  7.29735E-03  1.62426E-01
      21    -1     0     0   513   514  0.000000000E+00  0.000000000E+00  2.603783134E+01  2.603783134E+01  0.000000000E+00  0.00000E+00  9.000E+00
       2    -1     0     0   511     0  0.000000000E+00  0.000000000E+00 -2.962435971E+03  2.962435971E+03  0.000000000E+00  0.00000E+00  9.000E+00
       2     1     1     2   513     0 -2.201158924E+01 -2.302544978E+02 -1.163790204E+03  1.186553531E+03  1.525878906E-05  0.00000E+00  9.000E+00
      21     1     1     2   511   514  4.775533590E+01  2.711370782E+02 -1.521125314E+03  1.545838966E+03  2.157918644E-05  0.00000E+00  9.000E+00
      22     1     1     2     0     0 -2.574374667E+01 -4.088258039E+01 -2.514826219E+02  2.560813055E+02  2.697398305E-06  0.00000E+00  9.000E+00
#rwgt            1         187   3.0618564875592454E-002        6024     5410636           0
<rwgt>
<wgt id='central'>  0.154647013E+06 </wgt>
<wgt id='sudakovwgt'>  0.147635719E-02 </wgt>
<wgt id='scales0.50.5'>  0.195264152E+06 </wgt>
<wgt id='scales0.51.0'>  0.186401880E+06 </wgt>
<wgt id='scales1.00.5'>  0.161999521E+06 </wgt>
<wgt id='scales1.02.0'>  0.147227137E+06 </wgt>
<wgt id='scales2.01.0'>  0.130451726E+06 </wgt>
<wgt id='scales2.02.0'>  0.124192737E+06 </wgt>
</rwgt>
<scales uborns=' 0.277470834E+03'> </scales>
</event>
<event>
      5  10001  1.15122E+03  4.18074E+02  7.29735E-03  1.01111E-01
      21    -1     0     0   512   515  0.000000000E+00  0.000000000E+00  1.738212360E+02  1.738212360E+02  0.000000000E+00  0.00000E+00  9.000E+00
       2    -1     0     0   513     0  0.000000000E+00  0.000000000E+00 -2.316156658E+03  2.316156658E+03  0.000000000E+00  0.00000E+00  9.000E+00
      22     1     1     2     0     0  1.855280745E+01  1.104085718E+02 -3.659702127E+02  3.827119753E+02  0.000000000E+00  0.00000E+00  9.000E+00
      21     1     1     2   513   515  9.105379204E+01 -6.098425573E+02 -1.075312945E+03  1.239555028E+03  1.525878906E-05  0.00000E+00  9.000E+00
       2     1     1     2   512     0 -1.096065995E+02  4.994339855E+02 -7.010522637E+02  8.677108902E+02  1.525878906E-05  0.00000E+00  9.000E+00
#rwgt            1         187   8.7985462808729802E-003        6024     5411291           0
<rwgt>
<wgt id='central'>  0.115121858E+04 </wgt>
<wgt id='sudakovwgt'>  0.599663596E-03 </wgt>
<wgt id='scales0.50.5'>  0.148870704E+04 </wgt>
<wgt id='scales0.51.0'>  0.136084257E+04 </wgt>
<wgt id='scales1.00.5'>  0.125938838E+04 </wgt>
<wgt id='scales1.02.0'>  0.105641341E+04 </wgt>
<wgt id='scales2.01.0'>  0.987013781E+03 </wgt>
<wgt id='scales2.02.0'>  0.905730092E+03 </wgt>
</rwgt>
<scales uborns=' 0.634255692E+03'> </scales>
</event>
<event>
      5  10001  1.82224E+06  2.52152E+01  7.29735E-03  1.58472E-01
       2    -1     0     0   514     0  0.000000000E+00  0.000000000E+00  2.440853030E+03  2.440853030E+03  0.000000000E+00  0.00000E+00  9.000E+00
      21    -1     0     0   511   512  0.000000000E+00  0.000000000E+00 -2.009589863E+01  2.009589863E+01  0.000000000E+00  0.00000E+00  9.000E+00
       2     1     1     2   511     0 -1.823816050E+02  5.576428548E+01  6.160845264E+02  6.449285611E+02  1.525878906E-05  0.00000E+00  9.000E+00
      21     1     1     2   514   512  1.625258475E+02 -7.130631884E+01  1.576755805E+03  1.586712989E+03  0.000000000E+00  0.00000E+00  9.000E+00
      22     1     1     2     0     0  1.985575744E+01  1.554203336E+01  2.279168001E+02  2.293073781E+02  2.697398305E-06  0.00000E+00  9.000E+00
#rwgt            1         182   1.5894533333180371E-002        6024     5411439           0
<rwgt>
<wgt id='central'>  0.182224499E+07 </wgt>
<wgt id='sudakovwgt'>  0.229603065E-01 </wgt>
<wgt id='scales0.50.5'>  0.224545761E+07 </wgt>
<wgt id='scales0.51.0'>  0.222200090E+07 </wgt>
<wgt id='scales1.00.5'>  0.184147661E+07 </wgt>
<wgt id='scales1.02.0'>  0.178938158E+07 </wgt>
<wgt id='scales2.01.0'>  0.152260584E+07 </wgt>
<wgt id='scales2.02.0'>  0.149515038E+07 </wgt>
</rwgt>
<scales uborns=' 0.183691142E+03'> </scales>
</event>
<event>
      5  10001  1.42688E+01  2.06225E+02  7.29735E-03  1.11165E-01
       2    -1     0     0   511     0  0.000000000E+00  0.000000000E+00  3.886348229E+03  3.886348229E+03  0.000000000E+00  0.00000E+00  9.000E+00
      21    -1     0     0   513   515  0.000000000E+00  0.000000000E+00 -5.880149504E+02  5.880149504E+02  0.000000000E+00  0.00000E+00  9.000E+00
       2     1     1     2   513     0  2.059469233E+02 -1.152513288E+03  8.050087655E+02  1.420823749E+03  2.412626389E-05  0.00000E+00  9.000E+00
      21     1     1     2   511   515 -1.925289495E+02  1.338472221E+03  2.525121898E+03  2.864404979E+03  3.051757812E-05  0.00000E+00  9.000E+00
      22     1     1     2     0     0 -1.341797377E+01 -1.859589332E+02 -3.179738498E+01  1.891344510E+02  7.539457465E-07  0.00000E+00  9.000E+00
#rwgt            1         182   2.1779545224285073E-003        6024     5412584           0
<rwgt>
<wgt id='central'>  0.142687882E+02 </wgt>
<wgt id='sudakovwgt'>  0.450227680E-03 </wgt>
<wgt id='scales0.50.5'>  0.195124631E+02 </wgt>
<wgt id='scales0.51.0'>  0.166186425E+02 </wgt>
<wgt id='scales1.00.5'>  0.167534402E+02 </wgt>
<wgt id='scales1.02.0'>  0.122826280E+02 </wgt>
<wgt id='scales2.01.0'>  0.123886654E+02 </wgt>
<wgt id='scales2.02.0'>  0.106642022E+02 </wgt>
</rwgt>
<scales uborns=' 0.137718793E+04'> </scales>
</event>
<event>
      5  10001  1.64942E+02  1.01954E+01  7.29735E-03  1.94790E-01
       1    -1     0     0   513     0  0.000000000E+00  0.000000000E+00  1.051066920E+03  1.051066920E+03  0.000000000E+00  0.00000E+00  9.000E+00
       2    -1     0     0   512     0  0.000000000E+00  0.000000000E+00 -3.937450498E+03  3.937450498E+03  0.000000000E+00  0.00000E+00  9.000E+00
       1     1     1     2   512     0 -6.235470380E+01  8.848075621E+02  8.014601703E+02  1.195454280E+03  2.854658040E-05  0.00000E+00  9.000E+00
       2     1     1     2   513     0  4.511320043E+01 -6.818459822E+02 -2.872523646E+03  2.952683736E+03  5.285799584E-05  0.00000E+00  9.000E+00
      22     1     1     2     0     0  1.724150337E+01 -2.029615799E+02 -8.153201021E+02  8.403794031E+02  1.078959322E-05  0.00000E+00  9.000E+00
#rwgt            1          96   4.3141513105957778E-003        6024     5413294           0
<rwgt>
<wgt id='central'>  0.164941824E+03 </wgt>
<wgt id='sudakovwgt'>  0.503231609E-02 </wgt>
<wgt id='scales0.50.5'>  0.225379474E+03 </wgt>
<wgt id='scales0.51.0'>  0.193661359E+03 </wgt>
<wgt id='scales1.00.5'>  0.191956420E+03 </wgt>
<wgt id='scales1.02.0'>  0.143230215E+03 </wgt>
<wgt id='scales2.01.0'>  0.142226748E+03 </wgt>
<wgt id='scales2.02.0'>  0.123505037E+03 </wgt>
</rwgt>
<scales uborns=' 0.887021491E+03'> </scales>
</event>
<event>
      5  10001  1.56473E+01  1.39218E+01  7.29735E-03  1.80491E-01
       2    -1     0     0   512     0  0.000000000E+00  0.000000000E+00  7.393788009E+02  7.393788009E+02  0.000000000E+00  0.00000E+00  9.000E+00
       1    -1     0     0   511     0  0.000000000E+00  0.000000000E+00 -2.937704850E+03  2.937704850E+03  0.000000000E+00  0.00000E+00  9.000E+00
       2     1     1     2   511     0 -9.560601809E+02 -9.542500108E+02 -4.386817550E+02  1.420241471E+03  3.454355293E-05  0.00000E+00  9.000E+00
       1     1     1     2   512     0  9.691427297E+02  9.494894910E+02 -1.776273662E+03  2.235154591E+03  4.315837288E-05  0.00000E+00  9.000E+00
      22     1     1     2     0     0 -1.308254876E+01  4.760519853E+00  1.662936807E+01  2.168758893E+01  4.129530925E-07  0.00000E+00  9.000E+00
#rwgt            1          92   7.5812372852280434E-004        6024     5476702           0
<rwgt>
<wgt id='central'>  0.156473383E+02 </wgt>
<wgt id='sudakovwgt'>  0.135402281E+00 </wgt>
<wgt id='scales0.50.5'>  0.204972657E+02 </wgt>
<wgt id='scales0.51.0'>  0.182296118E+02 </wgt>
<wgt id='scales1.00.5'>  0.175937298E+02 </wgt>
<wgt id='scales1.02.0'>  0.140196207E+02 </wgt>
<wgt id='scales2.01.0'>  0.135820482E+02 </wgt>
<wgt id='scales2.02.0'>  0.121692026E+02 </wgt>
</rwgt>
<scales uborns=' 0.135375400E+04'> </scales>
</event>
<event>
      5  10001  1.46807E+05  1.18839E+01  7.29735E-03  1.87473E-01
      21    -1     0     0   513   511  0.000000000E+00  0.000000000E+00  3.973031441E+01  3.973031441E+01  0.000000000E+00  0.00000E+00  9.000E+00
       2    -1     0     0   514     0  0.000000000E+00  0.000000000E+00 -2.359862728E+03  2.359862728E+03  0.000000000E+00  0.00000E+00  9.000E+00
      22     1     1     2     0     0  5.242579958E+01  2.133248535E+01 -1.322676302E+02  1.438689174E+02  1.907348633E-06  0.00000E+00  9.000E+00
      21     1     1     2   514   511 -2.625751392E+02 -9.686422317E+01 -1.646390775E+03  1.670009271E+03  2.157918644E-05  0.00000E+00  9.000E+00
       2     1     1     2   513     0  2.101493397E+02  7.553173782E+01 -5.414740084E+02  5.857148539E+02  1.321449896E-05  0.00000E+00  9.000E+00
#rwgt            1         187   3.8153481073120435E-003        6024     5499541           0
<rwgt>
<wgt id='central'>  0.146806591E+06 </wgt>
<wgt id='sudakovwgt'>  0.129966773E-02 </wgt>
<wgt id='scales0.50.5'>  0.184599691E+06 </wgt>
<wgt id='scales0.51.0'>  0.176911398E+06 </wgt>
<wgt id='scales1.00.5'>  0.153187003E+06 </wgt>
<wgt id='scales1.02.0'>  0.140314830E+06 </wgt>
<wgt id='scales2.01.0'>  0.123861815E+06 </wgt>
<wgt id='scales2.02.0'>  0.118384339E+06 </wgt>
</rwgt>
<scales uborns=' 0.279899174E+03'> </scales>
</event>
<event>
      5  10001  2.06769E+01  1.10511E+03  7.29735E-03  8.99611E-02
      21    -1     0     0   512   515  0.000000000E+00  0.000000000E+00  6.859583527E+02  6.859583527E+02  0.000000000E+00  0.00000E+00  9.000E+00
       2    -1     0     0   511     0  0.000000000E+00  0.000000000E+00 -2.411821915E+03  2.411821915E+03  0.000000000E+00  0.00000E+00  9.000E+00
       2     1     1     2   512     0  2.534650015E+02  2.774236460E+02 -2.858137030E+02  4.721205982E+02  3.814697266E-06  0.00000E+00  9.000E+00
      21     1     1     2   511   515 -1.194955194E+03  5.657939928E+01 -7.648333624E+02  1.419890565E+03  2.412626389E-05  0.00000E+00  9.000E+00
      22     1     1     2     0     0  9.414901921E+02 -3.340030453E+02 -6.752164964E+02  1.205769104E+03  0.000000000E+00  0.00000E+00  9.000E+00
#rwgt            1         187   6.1241892002703970E-003        6024     5500521           0
<rwgt>
<wgt id='central'>  0.206768710E+02 </wgt>
<wgt id='sudakovwgt'>  0.449425383E-03 </wgt>
<wgt id='scales0.50.5'>  0.274867704E+02 </wgt>
<wgt id='scales0.51.0'>  0.241110709E+02 </wgt>
<wgt id='scales1.00.5'>  0.235717943E+02 </wgt>
<wgt id='scales1.02.0'>  0.182901440E+02 </wgt>
<wgt id='scales2.01.0'>  0.179339113E+02 </wgt>
<wgt id='scales2.02.0'>  0.158637813E+02 </wgt>
</rwgt>
<scales uborns=' 0.128579039E+04'> </scales>
</event>
<event>
      5  10001  6.54996E+02  1.21995E+01  7.29735E-03  1.86278E-01
      21    -1     0     0   513   514  0.000000000E+00  0.000000000E+00  1.317902984E+02  1.317902984E+02  0.000000000E+00  0.00000E+00  9.000E+00
       2    -1     0     0   512     0  0.000000000E+00  0.000000000E+00 -3.935945250E+03  3.935945250E+03  0.000000000E+00  0.00000E+00  9.000E+00
       2     1     1     2   513     0 -5.224694860E+02 -4.559884662E+02 -1.613928988E+03  1.756606565E+03  3.051757812E-05  0.00000E+00  9.000E+00
      21     1     1     2   512   514  5.258300632E+02  4.677159364E+02 -1.994339310E+03  2.114862818E+03  4.315837288E-05  0.00000E+00  9.000E+00
      22     1     1     2     0     0 -3.360577205E+00 -1.172747016E+01 -1.958866524E+02  1.962661652E+02  3.814697266E-06  0.00000E+00  9.000E+00
#rwgt            1         187   1.7428832929550567E-002        6024     5500602           0
<rwgt>
<wgt id='central'>  0.654996289E+03 </wgt>
<wgt id='sudakovwgt'>  0.544265528E-01 </wgt>
<wgt id='scales0.50.5'>  0.869380646E+03 </wgt>
<wgt id='scales0.51.0'>  0.772709767E+03 </wgt>
<wgt id='scales1.00.5'>  0.736940142E+03 </wgt>
<wgt id='scales1.02.0'>  0.585629807E+03 </wgt>
<wgt id='scales2.01.0'>  0.562521526E+03 </wgt>
<wgt id='scales2.02.0'>  0.502948678E+03 </wgt>
</rwgt>
<scales uborns=' 0.698580183E+03'> </scales>
</event>
<event>
      5  10001  1.76807E+01  1.53185E+02  7.29735E-03  1.16033E-01
       2    -1     0     0   513     0  0.000000000E+00  0.000000000E+00  4.058702387E+03  4.058702387E+03  0.000000000E+00  0.00000E+00  9.000E+00
       2    -1     0     0   511     0  0.000000000E+00  0.000000000E+00 -5.505810533E+02  5.505810533E+02  0.000000000E+00  0.00000E+00  9.000E+00
       2     1     1     2   511     0 -1.256703833E+03  6.122222808E+02  1.911253959E+03  2.367913077E+03  3.737624730E-05  0.00000E+00  9.000E+00
       2     1     1     2   513     0  1.104942953E+03 -5.913841409E+02  9.392562900E+02  1.566153412E+03  1.525878906E-05  0.00000E+00  9.000E+00
      22     1     1     2     0     0  1.517608799E+02 -2.083813987E+01  6.576110852E+02  6.752169519E+02  0.000000000E+00  0.00000E+00  9.000E+00
#rwgt            1          97   1.1159658418308852E-003        6024     5501793           0
<rwgt>
<wgt id='central'>  0.176807003E+02 </wgt>
<wgt id='sudakovwgt'>  0.380167750E-01 </wgt>
<wgt id='scales0.50.5'>  0.228512474E+02 </wgt>
<wgt id='scales0.51.0'>  0.206067578E+02 </wgt>
<wgt id='scales1.00.5'>  0.196064831E+02 </wgt>
<wgt id='scales1.02.0'>  0.160476903E+02 </wgt>
<wgt id='scales2.01.0'>  0.153418578E+02 </wgt>
<wgt id='scales2.02.0'>  0.139248663E+02 </wgt>
</rwgt>
<scales uborns=' 0.132344622E+04'> </scales>
</event>
<event>
      5  10001  3.41807E+02  2.69089E+01  7.29735E-03  1.56394E-01
      21    -1     0     0   511   514  0.000000000E+00  0.000000000E+00  3.071058624E+02  3.071058624E+02  0.000000000E+00  0.00000E+00  9.000E+00
       2    -1     0     0   514     0  0.000000000E+00  0.000000000E+00 -2.684089690E+03  2.684089690E+03  0.000000000E+00  0.00000E+00  9.000E+00
       2     1     1     2   512     0  3.944035188E+01  7.677831807E+02 -1.803322522E+03  1.960361873E+03  2.157918644E-05  0.00000E+00  9.000E+00
      21     1     1     2   511   512 -3.201236574E+01 -7.936465016E+02 -4.682455013E+02  9.220376405E+02  1.321449896E-05  0.00000E+00  9.000E+00
      22     1     1     2     0     0 -7.427986145E+00  2.586332088E+01 -1.054158042E+02  1.087960390E+02  0.000000000E+00  0.00000E+00  9.000E+00
#rwgt            1         187   1.5746248431914665E-002        6024     5511989           0
<rwgt>
<wgt id='central'>  0.341807385E+03 </wgt>
<wgt id='sudakovwgt'>  0.411803611E-01 </wgt>
<wgt id='scales0.50.5'>  0.451034499E+03 </wgt>
<wgt id='scales0.51.0'>  0.402321723E+03 </wgt>
<wgt id='scales1.00.5'>  0.383192704E+03 </wgt>
<wgt id='scales1.02.0'>  0.306916511E+03 </wgt>
<wgt id='scales2.01.0'>  0.294113286E+03 </wgt>
<wgt id='scales2.02.0'>  0.264091209E+03 </wgt>
</rwgt>
<scales uborns=' 0.781451157E+03'> </scales>
</event>
<event>
      5  10001  1.66641E+02  3.83630E+00  7.29735E-03  2.67820E-01
       3    -1     0     0   512     0  0.000000000E+00  0.000000000E+00  1.369831249E+03  1.369831249E+03  0.000000000E+00  0.00000E+00  9.000E+00
      21    -1     0     0   513   515  0.000000000E+00  0.000000000E+00 -1.077071641E+03  1.077071641E+03  0.000000000E+00  0.00000E+00  9.000E+00
       3     1     1     2   513     0  7.987675067E+02  3.731069604E+02 -6.903670866E+02  1.119752226E+03  2.642899792E-05  0.00000E+00  9.000E+00
      21     1     1     2   512   515 -8.029466369E+02 -3.717557964E+02  9.832398578E+02  1.322757080E+03  1.525878906E-05  0.00000E+00  9.000E+00
      22     1     1     2     0     0  4.179130182E+00 -1.351163945E+00 -1.131631355E-01  4.393583843E+00  2.219597863E-08  0.00000E+00  9.000E+00
#rwgt            1         183   2.1147081548843635E-005        6024     5512854           0
<rwgt>
<wgt id='central'>  0.166641094E+03 </wgt>
<wgt id='sudakovwgt'>  0.654653526E-01 </wgt>
<wgt id='scales0.50.5'>  0.223608634E+03 </wgt>
<wgt id='scales0.51.0'>  0.195662966E+03 </wgt>
<wgt id='scales1.00.5'>  0.190441591E+03 </wgt>
<wgt id='scales1.02.0'>  0.147134638E+03 </wgt>
<wgt id='scales2.01.0'>  0.143687541E+03 </wgt>
<wgt id='scales2.02.0'>  0.126868024E+03 </wgt>
</rwgt>
<scales uborns=' 0.885433275E+03'> </scales>
</event>
<event>
      5  10001  3.27332E+01  7.93383E+01  7.29735E-03  1.28524E-01
       1    -1     0     0   511     0  0.000000000E+00  0.000000000E+00  1.902789662E+03  1.902789662E+03  0.000000000E+00  0.00000E+00  9.000E+00
       1    -1     0     0   513     0  0.000000000E+00  0.000000000E+00 -1.139238573E+03  1.139238573E+03  0.000000000E+00  0.00000E+00  9.000E+00
       1     1     1     2   511     0  5.848442000E+02 -1.012062342E+03 -3.362181312E+02  1.216287611E+03  1.375408659E-05  0.00000E+00  9.000E+00
       1     1     1     2   513     0 -5.328771793E+02  1.072012302E+03  1.201917672E+03  1.696400470E+03  4.825252777E-05  0.00000E+00  9.000E+00
      22     1     1     2     0     0 -5.196702064E+01 -5.994996006E+01 -1.021484526E+02  1.293401535E+02  2.336015456E-06  0.00000E+00  9.000E+00
#rwgt            1          91   5.6692461402220776E-004        6024     5513828           0
<rwgt>
<wgt id='central'>  0.327331998E+02 </wgt>
<wgt id='sudakovwgt'>  0.229780725E-01 </wgt>
<wgt id='scales0.50.5'>  0.424750429E+02 </wgt>
<wgt id='scales0.51.0'>  0.382269506E+02 </wgt>
<wgt id='scales1.00.5'>  0.363707817E+02 </wgt>
<wgt id='scales1.02.0'>  0.296527962E+02 </wgt>
<wgt id='scales2.01.0'>  0.283545378E+02 </wgt>
<wgt id='scales2.02.0'>  0.256861942E+02 </wgt>
</rwgt>
<scales uborns=' 0.118238005E+04'> </scales>
</event>
<event>
      5  10001  7.49222E+02  1.97339E+01  7.29735E-03  1.66850E-01
       2    -1     0     0   514     0  0.000000000E+00  0.000000000E+00  9.478690314E+02  9.478690314E+02  0.000000000E+00  0.00000E+00  9.000E+00
      21    -1     0     0   511   514  0.000000000E+00  0.000000000E+00 -4.922559106E+02  4.922559106E+02  0.000000000E+00  0.00000E+00  9.000E+00
       2     1     1     2   512     0 -5.486437597E+02 -1.165243421E+02  1.507907086E+02  5.807974992E+02  1.095688371E-05  0.00000E+00  9.000E+00
      21     1     1     2   511   512  6.654502687E+02  1.492951616E+02  2.530386061E+02  7.274212270E+02  1.175768662E-05  0.00000E+00  9.000E+00
      22     1     1     2     0     0 -1.168065090E+02 -3.277081950E+01  5.178380618E+01  1.319062157E+02  0.000000000E+00  0.00000E+00  9.000E+00
#rwgt            1         182   4.0228947360331363E-003        6024     5514972           0
<rwgt>
<wgt id='central'>  0.749222076E+03 </wgt>
<wgt id='sudakovwgt'>  0.207022246E-02 </wgt>
<wgt id='scales0.50.5'>  0.961468809E+03 </wgt>
<wgt id='scales0.51.0'>  0.884289599E+03 </wgt>
<wgt id='scales1.00.5'>  0.814612752E+03 </wgt>
<wgt id='scales1.02.0'>  0.692183554E+03 </wgt>
<wgt id='scales2.01.0'>  0.643186406E+03 </wgt>
<wgt id='scales2.02.0'>  0.594220475E+03 </wgt>
</rwgt>
<scales uborns=' 0.682649303E+03'> </scales>
</event>
<event>
      5  10001  8.12299E+01  5.70649E+01  7.29735E-03  1.35878E-01
       1    -1     0     0   512     0  0.000000000E+00  0.000000000E+00  1.497352558E+03  1.497352558E+03  0.000000000E+00  0.00000E+00  9.000E+00
       2    -1     0     0   513     0  0.000000000E+00  0.000000000E+00 -1.528931688E+03  1.528931688E+03  0.000000000E+00  0.00000E+00  9.000E+00
       1     1     1     2   513     0  7.773736009E+02  6.361306171E+02  1.115226585E+03  1.500900468E+03  2.642899792E-05  0.00000E+00  9.000E+00
       2     1     1     2   512     0 -3.668394006E+02 -2.671320456E+02 -5.142670320E+02  6.858580435E+02  7.629394531E-06  0.00000E+00  9.000E+00
      22     1     1     2     0     0 -4.105342003E+02 -3.689985716E+02 -6.325386831E+02  8.395257358E+02  1.321449896E-05  0.00000E+00  9.000E+00
#rwgt            1          96   3.0365021075098027E-003        6024     5518097           0
<rwgt>
<wgt id='central'>  0.812299388E+02 </wgt>
<wgt id='sudakovwgt'>  0.407011871E-04 </wgt>
<wgt id='scales0.50.5'>  0.105224812E+03 </wgt>
<wgt id='scales0.51.0'>  0.951474145E+02 </wgt>
<wgt id='scales1.00.5'>  0.898332443E+02 </wgt>
<wgt id='scales1.02.0'>  0.739158150E+02 </wgt>
<wgt id='scales2.01.0'>  0.701846266E+02 </wgt>
<wgt id='scales2.02.0'>  0.638650777E+02 </wgt>
</rwgt>
<scales uborns=' 0.100476783E+04'> </scales>
</event>
<event>
      5  10001  4.06867E+04  2.17118E+01  7.29735E-03  1.63479E-01
      21    -1     0     0   513   514  0.000000000E+00  0.000000000E+00  1.406528251E+03  1.406528251E+03  0.000000000E+00  0.00000E+00  9.000E+00
      -2    -1     0     0     0   511  0.000000000E+00  0.000000000E+00 -1.080682001E+02  1.080682001E+02  0.000000000E+00  0.00000E+00  9.000E+00
      -2     1     1     2     0   514 -1.381136139E+02  3.069889072E+02  3.530024644E+02  4.877789451E+02  1.206313194E-05  0.00000E+00  9.000E+00
      21     1     1     2   513   511  1.425707386E+02 -3.282383327E+02  9.378565592E+02  1.003813600E+03  1.525878906E-05  0.00000E+00  9.000E+00
      22     1     1     2     0     0 -4.457124755E+00  2.124942553E+01  7.601026851E+00  2.300390522E+01  3.371747881E-07  0.00000E+00  9.000E+00
#rwgt            1         197   4.4428694648730960E-004        6024     5535843           0
<rwgt>
<wgt id='central'>  0.406867441E+05 </wgt>
<wgt id='sudakovwgt'>  0.303469564E-01 </wgt>
<wgt id='scales0.50.5'>  0.529702064E+05 </wgt>
<wgt id='scales0.51.0'>  0.487614068E+05 </wgt>
<wgt id='scales1.00.5'>  0.441985382E+05 </wgt>
<wgt id='scales1.02.0'>  0.375956807E+05 </wgt>
<wgt id='scales2.01.0'>  0.344840722E+05 </wgt>
<wgt id='scales2.02.0'>  0.318642743E+05 </wgt>
</rwgt>
<scales uborns=' 0.347097920E+03'> </scales>
</event>
<event>
      5  10001  6.34334E+02  6.31070E+00  7.29735E-03  2.22119E-01
      21    -1     0     0   515   514  0.000000000E+00  0.000000000E+00  6.620493557E+02  6.620493557E+02  0.000000000E+00  0.00000E+00  9.000E+00
       2    -1     0     0   514     0  0.000000000E+00  0.000000000E+00 -9.233404869E+02  9.233404869E+02  0.000000000E+00  0.00000E+00  9.000E+00
       2     1     1     2   512     0  2.482513445E+02  6.204429744E+02 -4.581091155E+02  8.102111924E+02  1.427329020E-05  0.00000E+00  9.000E+00
      21     1     1     2   515   512 -2.662874651E+02 -6.497595655E+02  2.173785600E+02  7.350849920E+02  1.684524701E-05  0.00000E+00  9.000E+00
      22     1     1     2     0     0  1.803612064E+01  2.931659111E+01 -2.056057565E+01  4.009365827E+01  8.596304120E-07  0.00000E+00  9.000E+00
#rwgt            1         187   6.4332858836098992E-003        6024     5536663           0
<rwgt>
<wgt id='central'>  0.634333910E+03 </wgt>
<wgt id='sudakovwgt'>  0.350149107E+00 </wgt>
<wgt id='scales0.50.5'>  0.821195280E+03 </wgt>
<wgt id='scales0.51.0'>  0.748249949E+03 </wgt>
<wgt id='scales1.00.5'>  0.696173902E+03 </wgt>
<wgt id='scales1.02.0'>  0.581127412E+03 </wgt>
<wgt id='scales2.01.0'>  0.544828629E+03 </wgt>
<wgt id='scales2.02.0'>  0.499129561E+03 </wgt>
</rwgt>
<scales uborns=' 0.702437310E+03'> </scales>
</event>
<event>
      4  10001  2.55761E+04  8.94427E-01  7.29735E-03  7.50636E-01
      21    -1     0     0   511   513  0.000000000E+00  0.000000000E+00  6.802290216E+02  6.802290216E+02  0.000000000E+00  0.00000E+00  9.000E+00
       3    -1     0     0   512     0  0.000000000E+00  0.000000000E+00 -2.080012640E+02  2.080012640E+02  0.000000000E+00  0.00000E+00  9.000E+00
       3     1     1     2   511     0  2.759486535E+02  2.543033776E+02  2.055381932E+02  4.278595752E+02  6.607249480E-06  0.00000E+00  9.000E+00
      21     1     1     2   512   513 -2.759486535E+02 -2.543033776E+02  2.666895644E+02  4.603707103E+02  5.394796609E-06  0.00000E+00  9.000E+00
#rwgt            1         188   3.7634190435012759E-004        6024     5538672           0
<rwgt>
<wgt id='central'>  0.255761204E+05 </wgt>
<wgt id='sudakovwgt'>  0.173504294E+01 </wgt>
<wgt id='scales0.50.5'>  0.323389876E+05 </wgt>
<wgt id='scales0.51.0'>  0.305934669E+05 </wgt>
<wgt id='scales1.00.5'>  0.270353532E+05 </wgt>
<wgt id='scales1.02.0'>  0.241958278E+05 </wgt>
<wgt id='scales2.01.0'>  0.217115083E+05 </wgt>
<wgt id='scales2.02.0'>  0.205397976E+05 </wgt>
</rwgt>
<scales uborns=' 0.375257068E+03'> </scales>
</event>
<event>
      5  10001  1.85630E+08  4.83366E+00  7.29735E-03  2.45490E-01
       1    -1     0     0   515     0  0.000000000E+00  0.000000000E+00  1.957793361E+03  1.957793361E+03  0.000000000E+00  0.00000E+00  9.000E+00
      21    -1     0     0   514   511  0.000000000E+00  0.000000000E+00 -1.647805199E+01  1.647805199E+01  0.000000000E+00  0.00000E+00  9.000E+00
       1     1     1     2   514     0  1.039376889E+01  8.189140077E+01  1.475653906E+03  1.477960988E+03  3.737624730E-05  0.00000E+00  9.000E+00
      21     1     1     2   515   511 -1.026809715E+01 -8.672342498E+01  1.092399013E+02  1.398561486E+02  1.907348633E-06  0.00000E+00  9.000E+00
      22     1     1     2     0     0 -1.256717427E-01  4.832024208E+00  3.564215022E+02  3.564542768E+02  7.629394531E-06  0.00000E+00  9.000E+00
#rwgt            1         181   9.1173052982871650E-003        6024     5540574           0
<rwgt>
<wgt id='central'>  0.185629937E+09 </wgt>
<wgt id='sudakovwgt'>  0.227348747E-01 </wgt>
<wgt id='scales0.50.5'>  0.228144792E+09 </wgt>
<wgt id='scales0.51.0'>  0.232364858E+09 </wgt>
<wgt id='scales1.00.5'>  0.182258703E+09 </wgt>
<wgt id='scales1.02.0'>  0.186300197E+09 </wgt>
<wgt id='scales2.01.0'>  0.151873127E+09 </wgt>
<wgt id='scales2.02.0'>  0.152421448E+09 </wgt>
</rwgt>
<scales uborns=' 0.849288184E+02'> </scales>
</event>
<event>
      5  10001  2.35938E+02  7.90240E+02  7.29735E-03  9.35145E-02
       1    -1     0     0   511     0  0.000000000E+00  0.000000000E+00  1.170165290E+03  1.170165290E+03  0.000000000E+00  0.00000E+00  9.000E+00
       2    -1     0     0   512     0  0.000000000E+00  0.000000000E+00 -1.041194775E+03  1.041194775E+03  0.000000000E+00  0.00000E+00  9.000E+00
       1     1     1     2   512     0  5.535276621E+02 -1.678395682E+02  5.480038065E+02  7.967880304E+02  0.000000000E+00  0.00000E+00  9.000E+00
      22     1     1     2     0     0 -4.131650160E+02  3.577288321E+02 -7.985110916E+02  9.676234863E+02  1.078959322E-05  0.00000E+00  9.000E+00
       2     1     1     2   511     0 -1.403626461E+02 -1.898892638E+02  3.794777998E+02  4.469485490E+02  0.000000000E+00  0.00000E+00  9.000E+00
#rwgt            1          96   1.7668167022895243E-003        6024     5540845           0
<rwgt>
<wgt id='central'>  0.235937862E+03 </wgt>
<wgt id='sudakovwgt'>  0.981542239E-05 </wgt>
<wgt id='scales0.50.5'>  0.299357628E+03 </wgt>
<wgt id='scales0.51.0'>  0.277356125E+03 </wgt>
<wgt id='scales1.00.5'>  0.254653976E+03 </wgt>
<wgt id='scales1.02.0'>  0.219563114E+03 </wgt>
<wgt id='scales2.01.0'>  0.203235627E+03 </wgt>
<wgt id='scales2.02.0'>  0.189130395E+03 </wgt>
</rwgt>
<scales uborns=' 0.833345711E+03'> </scales>
</event>
<event>
      5  10001  2.00611E+03  4.43366E+02  7.29735E-03  1.00358E-01
       1    -1     0     0   511     0  0.000000000E+00  0.000000000E+00  1.669355700E+02  1.669355700E+02  0.000000000E+00  0.00000E+00  9.000E+00
      -4    -1     0     0     0   511  0.000000000E+00  0.000000000E+00 -2.909812443E+03  2.909812443E+03  0.000000000E+00  0.00000E+00  9.000E+00
       1     1     1     2   513     0 -1.385194634E+02  5.528241345E+02 -5.022185653E+02  7.596220460E+02  7.629394531E-06  0.00000E+00  9.000E+00
      22     1     1     2     0     0  4.439513586E+01 -2.499655818E+01 -2.738439734E+02  2.785431345E+02  3.814697266E-06  0.00000E+00  9.000E+00
      -4     1     1     2     0   513  9.412432755E+01 -5.278275764E+02 -1.966814335E+03  2.038582833E+03  2.157918644E-05  0.00000E+00  9.000E+00
#rwgt            1         143   2.2166024078328284E-005        6024     5547757           0
<rwgt>
<wgt id='central'>  0.200611111E+04 </wgt>
<wgt id='sudakovwgt'>  0.123804258E-02 </wgt>
<wgt id='scales0.50.5'>  0.254728386E+04 </wgt>
<wgt id='scales0.51.0'>  0.237618464E+04 </wgt>
<wgt id='scales1.00.5'>  0.215056167E+04 </wgt>
<wgt id='scales1.02.0'>  0.187607072E+04 </wgt>
<wgt id='scales2.01.0'>  0.171704692E+04 </wgt>
<wgt id='scales2.02.0'>  0.160574518E+04 </wgt>
</rwgt>
<scales uborns=' 0.576957892E+03'> </scales>
</event>
<event>
      4  10001  1.89547E+01  8.94427E-01  7.29735E-03  7.50788E-01
      21    -1     0     0   513   514  0.000000000E+00  0.000000000E+00  6.436091933E+02  6.436091933E+02  0.000000000E+00  0.00000E+00  9.000E+00
       1    -1     0     0   514     0  0.000000000E+00  0.000000000E+00 -2.742842133E+03  2.742842133E+03  0.000000000E+00  0.00000E+00  9.000E+00
       1     1     1     2   512     0 -8.479267558E+02  9.940275534E+02 -7.420469634E+02  1.502565891E+03  2.157918644E-05  0.00000E+00  9.000E+00
      21     1     1     2   513   512  8.479267558E+02 -9.940275534E+02 -1.357185976E+03  1.883885436E+03  1.525878906E-05  0.00000E+00  9.000E+00
#rwgt            1         186   9.9467813015515676E-004        6024     5553079           0
<rwgt>
<wgt id='central'>  0.189547072E+02 </wgt>
<wgt id='sudakovwgt'>  0.178870677E+01 </wgt>
<wgt id='scales0.50.5'>  0.257401686E+02 </wgt>
<wgt id='scales0.51.0'>  0.220965902E+02 </wgt>
<wgt id='scales1.00.5'>  0.220802020E+02 </wgt>
<wgt id='scales1.02.0'>  0.164334642E+02 </wgt>
<wgt id='scales2.01.0'>  0.164441514E+02 </wgt>
<wgt id='scales2.02.0'>  0.142568531E+02 </wgt>
</rwgt>
<scales uborns=' 0.130654910E+04'> </scales>
</event>
<event>
      5  10001  3.94355E+00  4.51093E+02  7.29735E-03  1.00139E-01
      21    -1     0     0   511   514  0.000000000E+00  0.000000000E+00  1.061518999E+03  1.061518999E+03  0.000000000E+00  0.00000E+00  9.000E+00
       4    -1     0     0   512     0  0.000000000E+00  0.000000000E+00 -2.992059663E+03  2.992059663E+03  0.000000000E+00  0.00000E+00  9.000E+00
       4     1     1     2   511     0 -4.967932187E+02  1.613626019E+03 -1.116889678E+03  2.024360389E+03  4.577636719E-05  0.00000E+00  9.000E+00
      21     1     1     2   512   514  6.805889664E+02 -1.429714775E+03 -6.022147488E+02  1.694092171E+03  2.018548058E-05  0.00000E+00  9.000E+00
      22     1     1     2     0     0 -1.837957477E+02 -1.839112441E+02 -2.114362365E+02  3.351261027E+02  6.031565972E-06  0.00000E+00  9.000E+00
#rwgt            1         189   1.2355317374222546E-004        6024     5554871           0
<rwgt>
<wgt id='central'>  0.394354503E+01 </wgt>
<wgt id='sudakovwgt'>  0.131341247E-02 </wgt>
<wgt id='scales0.50.5'>  0.532090048E+01 </wgt>
<wgt id='scales0.51.0'>  0.457383952E+01 </wgt>
<wgt id='scales1.00.5'>  0.458766360E+01 </wgt>
<wgt id='scales1.02.0'>  0.342218103E+01 </wgt>
<wgt id='scales2.01.0'>  0.343622357E+01 </wgt>
<wgt id='scales2.02.0'>  0.298192722E+01 </wgt>
</rwgt>
<scales uborns=' 0.176323264E+04'> </scales>
</event>
<event>
      5  10001  4.37303E+07  4.29775E+01  7.29735E-03  1.42932E-01
       2    -1     0     0   515     0  0.000000000E+00  0.000000000E+00  6.940910049E+01  6.940910049E+01  0.000000000E+00  0.00000E+00  9.000E+00
      21    -1     0     0   513   511  0.000000000E+00  0.000000000E+00 -1.938947499E+02  1.938947499E+02  0.000000000E+00  0.00000E+00  9.000E+00
      22     1     1     2     0     0  1.958640910E-01  1.057028223E+00 -1.336715134E+00  1.715365488E+00  2.580956828E-08  0.00000E+00  9.000E+00
      21     1     1     2   515   511  2.162152280E+01 -1.058584000E+02 -1.441243244E+01  1.090009601E+02  1.203954809E-06  0.00000E+00  9.000E+00
       2     1     1     2   513     0 -2.181738689E+01  1.048013718E+02 -1.087365018E+02  1.525875248E+02  3.303624740E-06  0.00000E+00  9.000E+00
#rwgt            1         182   4.2919932023088424E-004        6024     5556138           0
<rwgt>
<wgt id='central'>  0.437302968E+08 </wgt>
<wgt id='sudakovwgt'>  0.100769074E+00 </wgt>
<wgt id='scales0.50.5'>  0.527061700E+08 </wgt>
<wgt id='scales0.51.0'>  0.542531178E+08 </wgt>
<wgt id='scales1.00.5'>  0.424833949E+08 </wgt>
<wgt id='scales1.02.0'>  0.444709631E+08 </wgt>
<wgt id='scales2.01.0'>  0.360333128E+08 </wgt>
<wgt id='scales2.02.0'>  0.366436115E+08 </wgt>
</rwgt>
<scales uborns=' 0.108083641E+03'> </scales>
</event>
<event>
      5  10001  3.94834E+01  1.67340E+00  7.29735E-03  4.03545E-01
      -1    -1     0     0     0   512  0.000000000E+00  0.000000000E+00  1.144781872E+03  1.144781872E+03  0.000000000E+00  0.00000E+00  9.000E+00
      21    -1     0     0   514   511  0.000000000E+00  0.000000000E+00 -1.542020791E+03  1.542020791E+03  0.000000000E+00  0.00000E+00  9.000E+00
      -1     1     1     2     0   511 -9.892637339E+02  5.728750015E+02  8.902796728E+01  1.146627438E+03  2.994598096E-05  0.00000E+00  9.000E+00
      21     1     1     2   514   512  9.897640629E+02 -5.712781530E+02 -6.909789619E+02  1.335456309E+03  2.412626389E-05  0.00000E+00  9.000E+00
      22     1     1     2     0     0 -5.003290149E-01 -1.596848461E+00  2.047120759E+02  2.047189153E+02  2.697398305E-06  0.00000E+00  9.000E+00
#rwgt            1         191   3.0890468857654548E-004        6024     5556719           0
<rwgt>
<wgt id='central'>  0.394833900E+02 </wgt>
<wgt id='sudakovwgt'>  0.779687316E-01 </wgt>
<wgt id='scales0.50.5'>  0.534860872E+02 </wgt>
<wgt id='scales0.51.0'>  0.461383644E+02 </wgt>
<wgt id='scales1.00.5'>  0.457712926E+02 </wgt>
<wgt id='scales1.02.0'>  0.344065121E+02 </wgt>
<wgt id='scales2.01.0'>  0.341838705E+02 </wgt>
<wgt id='scales2.02.0'>  0.297884112E+02 </wgt>
</rwgt>
<scales uborns=' 0.114298265E+04'> </scales>
</event>
<event>
      5  10001  4.86959E+03  4.31002E+00  7.29735E-03  2.56058E-01
       2    -1     0     0   515     0  0.000000000E+00  0.000000000E+00  3.497157432E+03  3.497157432E+03  0.000000000E+00  0.00000E+00  9.000E+00
      21    -1     0     0   513   511  0.000000000E+00  0.000000000E+00 -1.389939246E+02  1.389939246E+02  0.000000000E+00  0.00000E+00  9.000E+00
       2     1     1     2   513     0  4.525276579E+02  1.561419651E+02  2.848929473E+03  2.888868418E+03  6.103515625E-05  0.00000E+00  9.000E+00
      21     1     1     2   515   511 -4.676852274E+02 -1.659029477E+02  4.022610641E+02  6.388013961E+02  1.078959322E-05  0.00000E+00  9.000E+00
      22     1     1     2     0     0  1.515756953E+01  9.760982587E+00  1.069729703E+02  1.084815425E+02  1.907348633E-06  0.00000E+00  9.000E+00
#rwgt            1         182   4.2555340649323731E-002        6024     5557556           0
<rwgt>
<wgt id='central'>  0.486959206E+04 </wgt>
<wgt id='sudakovwgt'>  0.162731698E-02 </wgt>
<wgt id='scales0.50.5'>  0.649161590E+04 </wgt>
<wgt id='scales0.51.0'>  0.578702273E+04 </wgt>
<wgt id='scales1.00.5'>  0.546248206E+04 </wgt>
<wgt id='scales1.02.0'>  0.436631790E+04 </wgt>
<wgt id='scales2.01.0'>  0.415635878E+04 </wgt>
<wgt id='scales2.02.0'>  0.372679913E+04 </wgt>
</rwgt>
<scales uborns=' 0.496365297E+03'> </scales>
</event>
<event>
      5  10001  8.39267E+00  4.04647E+02  7.29735E-03  1.01535E-01
       2    -1     0     0   512     0  0.000000000E+00  0.000000000E+00  1.362959085E+03  1.362959085E+03  0.000000000E+00  0.00000E+00  9.000E+00
       2    -1     0     0   513     0  0.000000000E+00  0.000000000E+00 -3.053240198E+03  3.053240198E+03  0.000000000E+00  0.00000E+00  9.000E+00
       2     1     1     2   512     0  1.462219152E+03 -2.722571597E+02 -2.262370076E+03  2.707494630E+03  4.315837288E-05  0.00000E+00  9.000E+00
       2     1     1     2   513     0 -8.595955353E+02  2.237788176E+02  6.478512879E+02  1.099405628E+03  4.944412764E-05  0.00000E+00  9.000E+00
      22     1     1     2     0     0 -6.026236169E+02  4.847834210E+01 -7.576232543E+01  6.092990261E+02  1.841851036E-05  0.00000E+00  9.000E+00
#rwgt            1          97   6.2274634689646153E-003        6024     5564869           0
<rwgt>
<wgt id='central'>  0.839266645E+01 </wgt>
<wgt id='sudakovwgt'>  0.105073792E-02 </wgt>
<wgt id='scales0.50.5'>  0.110069255E+02 </wgt>
<wgt id='scales0.51.0'>  0.975800559E+01 </wgt>
<wgt id='scales1.00.5'>  0.946684160E+01 </wgt>
<wgt id='scales1.02.0'>  0.749818233E+01 </wgt>
<wgt id='scales2.01.0'>  0.729755749E+01 </wgt>
<wgt id='scales2.02.0'>  0.651978650E+01 </wgt>
</rwgt>
<scales uborns=' 0.152211354E+04'> </scales>
</event>
<event>
      4  10001  1.13008E+06  8.94427E-01  7.29735E-03  7.51923E-01
       2    -1     0     0   514     0  0.000000000E+00  0.000000000E+00  4.727262391E+01  4.727262391E+01  0.000000000E+00  0.00000E+00  9.000E+00
      21    -1     0     0   511   512  0.000000000E+00  0.000000000E+00 -8.379700117E+02  8.379700117E+02  0.000000000E+00  0.00000E+00  9.000E+00
       2     1     1     2   511     0 -1.598433035E+02  1.184583610E+02 -4.076860190E+02  4.536409980E+02  5.394796609E-06  0.00000E+00  9.000E+00
      21     1     1     2   514   512  1.598433035E+02 -1.184583610E+02 -3.830113687E+02  4.316016376E+02  7.629394531E-06  0.00000E+00  9.000E+00
#rwgt            1         182   4.6381840553442658E-004        6024     5570807           0
<rwgt>
<wgt id='central'>  0.113007841E+07 </wgt>
<wgt id='sudakovwgt'>  0.260823993E+02 </wgt>
<wgt id='scales0.50.5'>  0.142860296E+07 </wgt>
<wgt id='scales0.51.0'>  0.137475351E+07 </wgt>
<wgt id='scales1.00.5'>  0.117434552E+07 </wgt>
<wgt id='scales1.02.0'>  0.108590364E+07 </wgt>
<wgt id='scales2.01.0'>  0.946076339E+06 </wgt>
<wgt id='scales2.02.0'>  0.909092935E+06 </wgt>
</rwgt>
<scales uborns=' 0.198952921E+03'> </scales>
</event>
<event>
      5  10001  2.64660E+02  1.01925E+02  7.29735E-03  1.23456E-01
      21    -1     0     0   513   511  0.000000000E+00  0.000000000E+00  3.448432843E+02  3.448432843E+02  0.000000000E+00  0.00000E+00  9.000E+00
       2    -1     0     0   515     0  0.000000000E+00  0.000000000E+00 -1.970562400E+03  1.970562400E+03  0.000000000E+00  0.00000E+00  9.000E+00
      22     1     1     2     0     0  1.593869544E+02  6.981455330E+02 -6.575330288E+02  9.721939469E+02  1.868812365E-05  0.00000E+00  9.000E+00
      21     1     1     2   515   511 -1.163216646E+02 -7.905107343E+02 -9.471257062E+02  1.239146906E+03  2.157918644E-05  0.00000E+00  9.000E+00
       2     1     1     2   513     0 -4.306528974E+01  9.236520132E+01 -2.106038096E+01  1.040648319E+02  1.215700987E-06  0.00000E+00  9.000E+00
#rwgt            1         187   5.6631762920996359E-003        6024     5585184           0
<rwgt>
<wgt id='central'>  0.264660067E+03 </wgt>
<wgt id='sudakovwgt'>  0.488797575E-03 </wgt>
<wgt id='scales0.50.5'>  0.344633547E+03 </wgt>
<wgt id='scales0.51.0'>  0.311242434E+03 </wgt>
<wgt id='scales1.00.5'>  0.293053596E+03 </wgt>
<wgt id='scales1.02.0'>  0.240376236E+03 </wgt>
<wgt id='scales2.01.0'>  0.227900680E+03 </wgt>
<wgt id='scales2.02.0'>  0.206989751E+03 </wgt>
</rwgt>
<scales uborns=' 0.816876261E+03'> </scales>
</event>
<event>
      5  10001  1.67801E+03  1.41511E+02  7.29735E-03  1.17405E-01
       2    -1     0     0   513     0  0.000000000E+00  0.000000000E+00  2.181098693E+03  2.181098693E+03  0.000000000E+00  0.00000E+00  9.000E+00
       2    -1     0     0   512     0  0.000000000E+00  0.000000000E+00 -2.773699621E+02  2.773699621E+02  0.000000000E+00  0.00000E+00  9.000E+00
       2     1     1     2   512     0 -1.269889509E+02 -5.697986572E+02  1.711764398E+03  1.808572381E+03  2.157918644E-05  0.00000E+00  9.000E+00
       2     1     1     2   513     0  1.446100447E+01  3.721277314E+02  3.608585399E+01  3.741528538E+02  1.023812797E-05  0.00000E+00  9.000E+00
      22     1     1     2     0     0  1.125279464E+02  1.976709258E+02  1.558784791E+02  2.757434203E+02  3.303624740E-06  0.00000E+00  9.000E+00
#rwgt            1          97   8.4271255032571221E-004        6024     5585529           0
<rwgt>
<wgt id='central'>  0.167800646E+04 </wgt>
<wgt id='sudakovwgt'>  0.175697645E-02 </wgt>
<wgt id='scales0.50.5'>  0.212255548E+04 </wgt>
<wgt id='scales0.51.0'>  0.198626128E+04 </wgt>
<wgt id='scales1.00.5'>  0.179315247E+04 </wgt>
<wgt id='scales1.02.0'>  0.157561879E+04 </wgt>
<wgt id='scales2.01.0'>  0.143701263E+04 </wgt>
<wgt id='scales2.02.0'>  0.134932694E+04 </wgt>
</rwgt>
<scales uborns=' 0.594768964E+03'> </scales>
</event>
<event>
      4  10001  1.24365E+04  8.94427E-01  7.29735E-03  7.50236E-01
       1    -1     0     0   512     0  0.000000000E+00  0.000000000E+00  1.873571296E+03  1.873571296E+03  0.000000000E+00  0.00000E+00  9.000E+00
      21    -1     0     0   511   514  0.000000000E+00  0.000000000E+00 -3.666807699E+02  3.666807699E+02  0.000000000E+00  0.00000E+00  9.000E+00
       1     1     1     2   511     0  2.865102723E+02  3.121165464E+02  1.716175799E+03  1.767700270E+03  0.000000000E+00  0.00000E+00  9.000E+00
      21     1     1     2   512   514 -2.865102723E+02 -3.121165464E+02 -2.092852720E+02  4.725517959E+02  9.344061824E-06  0.00000E+00  9.000E+00
#rwgt            1         181   4.1120505385515123E-003        6024     5592789           0
<rwgt>
<wgt id='central'>  0.124365032E+05 </wgt>
<wgt id='sudakovwgt'>  0.245542436E+01 </wgt>
<wgt id='scales0.50.5'>  0.167320329E+05 </wgt>
<wgt id='scales0.51.0'>  0.148332833E+05 </wgt>
<wgt id='scales1.00.5'>  0.140284469E+05 </wgt>
<wgt id='scales1.02.0'>  0.111062661E+05 </wgt>
<wgt id='scales2.01.0'>  0.105827910E+05 </wgt>
<wgt id='scales2.02.0'>  0.945083360E+04 </wgt>
</rwgt>
<scales uborns=' 0.423680156E+03'> </scales>
</event>
<event>
      4  10001  3.41470E+03  8.94427E-01  7.29735E-03  7.39968E-01
       1    -1     0     0   511     0  0.000000000E+00  0.000000000E+00  1.044670270E+03  1.044670270E+03  0.000000000E+00  0.00000E+00  9.000E+00
      21    -1     0     0   513   515  0.000000000E+00  0.000000000E+00 -1.238040254E+03  1.238040254E+03  0.000000000E+00  0.00000E+00  9.000E+00
       1     1     1     2   513     0 -3.384081913E+02  4.041514334E+02  9.146631443E+02  1.055683263E+03  1.078959322E-05  0.00000E+00  9.000E+00
      21     1     1     2   511   515  3.384081913E+02 -4.041514334E+02 -1.108033128E+03  1.227027260E+03  3.051757812E-05  0.00000E+00  9.000E+00
#rwgt            1         181   2.3259979070367233E-003        6024     5593962           0
<rwgt>
<wgt id='central'>  0.341469689E+04 </wgt>
<wgt id='sudakovwgt'>  0.166408610E+01 </wgt>
<wgt id='scales0.50.5'>  0.465609936E+04 </wgt>
<wgt id='scales0.51.0'>  0.405260357E+04 </wgt>
<wgt id='scales1.00.5'>  0.392320202E+04 </wgt>
<wgt id='scales1.02.0'>  0.300187465E+04 </wgt>
<wgt id='scales2.01.0'>  0.291783458E+04 </wgt>
<wgt id='scales2.02.0'>  0.256507853E+04 </wgt>
</rwgt>
<scales uborns=' 0.527122837E+03'> </scales>
</event>
<event>
      5  10001  5.43747E+01  5.30427E+02  7.29735E-03  9.81285E-02
      21    -1     0     0   512   513  0.000000000E+00  0.000000000E+00  6.166207229E+02  6.166207229E+02  0.000000000E+00  0.00000E+00  9.000E+00
       2    -1     0     0   514     0  0.000000000E+00  0.000000000E+00 -3.289532634E+03  3.289532634E+03  0.000000000E+00  0.00000E+00  9.000E+00
      22     1     1     2     0     0 -6.919885002E+01  2.322229579E+02  1.220301280E+02  2.713067179E+02  3.568322551E-06  0.00000E+00  9.000E+00
      21     1     1     2   514   513  3.886308012E+01 -1.059540813E+03 -2.565212697E+03  2.775689690E+03  5.285799584E-05  0.00000E+00  9.000E+00
       2     1     1     2   512     0  3.033576990E+01  8.273178554E+02 -2.297293423E+02  8.591569493E+02  1.907348633E-05  0.00000E+00  9.000E+00
#rwgt            1         187   6.9798837307536690E-004        6024     5595099           0
<rwgt>
<wgt id='central'>  0.543747139E+02 </wgt>
<wgt id='sudakovwgt'>  0.493689433E-03 </wgt>
<wgt id='scales0.50.5'>  0.739840684E+02 </wgt>
<wgt id='scales0.51.0'>  0.636064581E+02 </wgt>
<wgt id='scales1.00.5'>  0.632461175E+02 </wgt>
<wgt id='scales1.02.0'>  0.472180678E+02 </wgt>
<wgt id='scales2.01.0'>  0.470342402E+02 </wgt>
<wgt id='scales2.02.0'>  0.408437369E+02 </wgt>
</rwgt>
<scales uborns=' 0.107916859E+04'> </scales>
</event>
<event>
      5  10001  1.09552E+04  9.68794E-01  7.29735E-03  6.77802E-01
       2    -1     0     0   515     0  0.000000000E+00  0.000000000E+00  1.528592627E+03  1.528592627E+03  0.000000000E+00  0.00000E+00  9.000E+00
      21    -1     0     0   512   515  0.000000000E+00  0.000000000E+00 -1.250522435E+02  1.250522435E+02  0.000000000E+00  0.00000E+00  9.000E+00
       2     1     1     2   511     0 -3.842306896E+02  2.003066965E+02  7.889743521E+02  9.001313925E+02  0.000000000E+00  0.00000E+00  9.000E+00
      21     1     1     2   512   511  3.834938768E+02 -1.996776739E+02  6.034471476E+02  7.423524681E+02  7.629394531E-06  0.00000E+00  9.000E+00
      22     1     1     2     0     0  7.368128731E-01 -6.290225684E-01  1.111888389E+01  1.116100988E+01  1.685873940E-07  0.00000E+00  9.000E+00
#rwgt            1         182   9.7261246392050006E-003        6024     5595328           0
<rwgt>
<wgt id='central'>  0.109551616E+05 </wgt>
<wgt id='sudakovwgt'>  0.216107584E+00 </wgt>
<wgt id='scales0.50.5'>  0.138044284E+05 </wgt>
<wgt id='scales0.51.0'>  0.130599828E+05 </wgt>
<wgt id='scales1.00.5'>  0.115796687E+05 </wgt>
<wgt id='scales1.02.0'>  0.103667234E+05 </wgt>
<wgt id='scales2.01.0'>  0.932617201E+04 </wgt>
<wgt id='scales2.02.0'>  0.882520132E+04 </wgt>
</rwgt>
<scales uborns=' 0.432835889E+03'> </scales>
</event>
<event>
      5  10001  1.45950E+03  1.40959E+00  7.29735E-03  4.66955E-01
      -3    -1     0     0     0   513  0.000000000E+00  0.000000000E+00  5.505763862E+02  5.505763862E+02  0.000000000E+00  0.00000E+00  9.000E+00
      21    -1     0     0   511   514  0.000000000E+00  0.000000000E+00 -8.395897560E+02  8.395897560E+02  0.000000000E+00  0.00000E+00  9.000E+00
      -3     1     1     2     0   514  5.593257462E+02 -1.885949663E+02  1.595399442E+02  6.114461100E+02  1.513911044E-05  0.00000E+00  9.000E+00
      21     1     1     2   511   513 -5.775771504E+02  1.932860587E+02 -4.533630252E+02  7.592712939E+02  1.078959322E-05  0.00000E+00  9.000E+00
      22     1     1     2     0     0  1.825140416E+01 -4.691092400E+00  4.809711174E+00  1.944873834E+01  5.397430145E-07  0.00000E+00  9.000E+00
#rwgt            1         193   3.0605700219152549E-004        6024     5610802           0
<rwgt>
<wgt id='central'>  0.145949931E+04 </wgt>
<wgt id='sudakovwgt'>  0.296567533E-01 </wgt>
<wgt id='scales0.50.5'>  0.188489830E+04 </wgt>
<wgt id='scales0.51.0'>  0.172673496E+04 </wgt>
<wgt id='scales1.00.5'>  0.159318548E+04 </wgt>
<wgt id='scales1.02.0'>  0.134177755E+04 </wgt>
<wgt id='scales2.01.0'>  0.125041900E+04 </wgt>
<wgt id='scales2.02.0'>  0.114956091E+04 </wgt>
</rwgt>
<scales uborns=' 0.609081274E+03'> </scales>
</event>
<event>
      5  10001  2.08324E+04  4.43535E+00  7.29735E-03  2.53327E-01
       2    -1     0     0   515     0  0.000000000E+00  0.000000000E+00  3.341477449E+02  3.341477449E+02  0.000000000E+00  0.00000E+00  9.000E+00
      21    -1     0     0   512   514  0.000000000E+00  0.000000000E+00 -6.279636808E+02  6.279636808E+02  0.000000000E+00  0.00000E+00  9.000E+00
       2     1     1     2   512     0 -2.736130282E+01  3.853773951E+02  9.222754871E+01  3.972030945E+02  6.031565972E-06  0.00000E+00  9.000E+00
      21     1     1     2   515   514  2.615740597E+01 -3.896462320E+02 -3.946607345E+02  5.552166166E+02  1.427329020E-05  0.00000E+00  9.000E+00
      22     1     1     2     0     0  1.203896848E+00  4.268836891E+00  8.617249885E+00  9.691714586E+00  1.192092896E-07  0.00000E+00  9.000E+00
#rwgt            1         182   2.1258567277329535E-003        6024     5611202           0
<rwgt>
<wgt id='central'>  0.208324294E+05 </wgt>
<wgt id='sudakovwgt'>  0.682598279E-01 </wgt>
<wgt id='scales0.50.5'>  0.266621038E+05 </wgt>
<wgt id='scales0.51.0'>  0.248984631E+05 </wgt>
<wgt id='scales1.00.5'>  0.223080280E+05 </wgt>
<wgt id='scales1.02.0'>  0.195129175E+05 </wgt>
<wgt id='scales2.01.0'>  0.176968386E+05 </wgt>
<wgt id='scales2.02.0'>  0.165759563E+05 </wgt>
</rwgt>
<scales uborns=' 0.388430487E+03'> </scales>
</event>
<event>
      5  10001  7.94876E+02  2.28433E+00  7.29735E-03  3.38116E-01
      21    -1     0     0   511   512  0.000000000E+00  0.000000000E+00  2.778336628E+02  2.778336628E+02  0.000000000E+00  0.00000E+00  9.000E+00
       2    -1     0     0   513     0  0.000000000E+00  0.000000000E+00 -3.327952583E+03  3.327952583E+03  0.000000000E+00  0.00000E+00  9.000E+00
       2     1     1     2   511     0 -1.871906105E+01  6.445311767E+02 -2.681829574E+03  2.758256824E+03  5.285799584E-05  0.00000E+00  9.000E+00
      21     1     1     2   513   512  1.743760341E+01 -6.755151438E+02 -2.424388140E+02  7.179145896E+02  1.618438983E-05  0.00000E+00  9.000E+00
      22     1     1     2     0     0  1.281457642E+00  3.098396706E+01 -1.258505322E+02  1.296148325E+02  1.348699152E-06  0.00000E+00  9.000E+00
#rwgt            1         187   1.7525732269216387E-002        6024     5617337           0
<rwgt>
<wgt id='central'>  0.794876453E+03 </wgt>
<wgt id='sudakovwgt'>  0.271281023E+00 </wgt>
<wgt id='scales0.50.5'>  0.107110045E+04 </wgt>
<wgt id='scales0.51.0'>  0.938370714E+03 </wgt>
<wgt id='scales1.00.5'>  0.907308836E+03 </wgt>
<wgt id='scales1.02.0'>  0.701945066E+03 </wgt>
<wgt id='scales2.01.0'>  0.682258330E+03 </wgt>
<wgt id='scales2.02.0'>  0.602493808E+03 </wgt>
</rwgt>
<scales uborns=' 0.675760333E+03'> </scales>
</event>
<event>
      5  10001  2.53024E+02  7.81479E+01  7.29735E-03  1.28844E-01
      21    -1     0     0   515   512  0.000000000E+00  0.000000000E+00  9.945343299E+02  9.945343299E+02  0.000000000E+00  0.00000E+00  9.000E+00
       2    -1     0     0   512     0  0.000000000E+00  0.000000000E+00 -1.445610099E+03  1.445610099E+03  0.000000000E+00  0.00000E+00  9.000E+00
      22     1     1     2     0     0  5.054835765E+02 -6.149204647E+02 -9.668582202E+02  1.252379991E+03  3.051757812E-05  0.00000E+00  9.000E+00
      21     1     1     2   515   514 -5.014783294E+02  6.427153695E+02  6.549969041E+02  1.045745909E+03  1.705984480E-05  0.00000E+00  9.000E+00
       2     1     1     2   514     0 -4.005247077E+00 -2.779490479E+01 -1.392144526E+02  1.420185289E+02  2.697398305E-06  0.00000E+00  9.000E+00
#rwgt            1         187   8.5709886731240321E-003        6024     5620948           0
<rwgt>
<wgt id='central'>  0.253023960E+03 </wgt>
<wgt id='sudakovwgt'>  0.967158533E-03 </wgt>
<wgt id='scales0.50.5'>  0.337084982E+03 </wgt>
<wgt id='scales0.51.0'>  0.297512599E+03 </wgt>
<wgt id='scales1.00.5'>  0.286678919E+03 </wgt>
<wgt id='scales1.02.0'>  0.225200030E+03 </wgt>
<wgt id='scales2.01.0'>  0.217909261E+03 </wgt>
<wgt id='scales2.02.0'>  0.193946709E+03 </wgt>
</rwgt>
<scales uborns=' 0.823279935E+03'> </scales>
</event>
<event>
      4  10001  2.25981E+04  8.94427E-01  7.29735E-03  7.44248E-01
      21    -1     0     0   513   512  0.000000000E+00  0.000000000E+00  3.301506774E+02  3.301506774E+02  0.000000000E+00  0.00000E+00  9.000E+00
      -1    -1     0     0     0   511  0.000000000E+00  0.000000000E+00 -5.036029648E+02  5.036029648E+02  0.000000000E+00  0.00000E+00  9.000E+00
      -1     1     1     2     0   512  1.767433065E+02  3.399505643E+02  5.589437999E+01  3.872063587E+02  3.989505894E-06  0.00000E+00  9.000E+00
      21     1     1     2   513   511 -1.767433065E+02 -3.399505643E+02 -2.293466674E+02  4.465472835E+02  6.031565972E-06  0.00000E+00  9.000E+00
#rwgt            1         196   2.6740919572085698E-004        6024     5621456           0
<rwgt>
<wgt id='central'>  0.225981181E+05 </wgt>
<wgt id='sudakovwgt'>  0.138407157E+01 </wgt>
<wgt id='scales0.50.5'>  0.289478282E+05 </wgt>
<wgt id='scales0.51.0'>  0.270176761E+05 </wgt>
<wgt id='scales1.00.5'>  0.242125161E+05 </wgt>
<wgt id='scales1.02.0'>  0.211346113E+05 </wgt>
<wgt id='scales2.01.0'>  0.191915189E+05 </wgt>
<wgt id='scales2.02.0'>  0.179486458E+05 </wgt>
</rwgt>
<scales uborns=' 0.383150861E+03'> </scales>
</event>
<event>
      5  10001  3.08927E+03  9.31839E-01  7.29735E-03  7.12204E-01
      21    -1     0     0   514   512  0.000000000E+00  0.000000000E+00  4.050245796E+02  4.050245796E+02  0.000000000E+00  0.00000E+00  9.000E+00
       2    -1     0     0   515     0  0.000000000E+00  0.000000000E+00 -1.836877631E+03  1.836877631E+03  0.000000000E+00  0.00000E+00  9.000E+00
       2     1     1     2   514     0  3.069930957E+02 -3.890438993E+02 -1.471432038E+03  1.552646823E+03  2.157918644E-05  0.00000E+00  9.000E+00
      21     1     1     2   515   512 -3.326303834E+02  4.204947180E+02  1.621561082E+02  5.601369326E+02  6.877043296E-06  0.00000E+00  9.000E+00
      22     1     1     2     0     0  2.563728771E+01 -3.145081871E+01 -1.225771222E+02  1.291184549E+02  0.000000000E+00  0.00000E+00  9.000E+00
#rwgt            1         187   1.3895996647056812E-002        6024     5622474           0
<rwgt>
<wgt id='central'>  0.308926806E+04 </wgt>
<wgt id='sudakovwgt'>  0.360988028E+00 </wgt>
<wgt id='scales0.50.5'>  0.407964603E+04 </wgt>
<wgt id='scales0.51.0'>  0.366500764E+04 </wgt>
<wgt id='scales1.00.5'>  0.343877266E+04 </wgt>
<wgt id='scales1.02.0'>  0.279308016E+04 </wgt>
<wgt id='scales2.01.0'>  0.264058673E+04 </wgt>
<wgt id='scales2.02.0'>  0.238741529E+04 </wgt>
</rwgt>
<scales uborns=' 0.536153712E+03'> </scales>
</event>
<event>
      5  10001  4.42613E+00  4.20385E+01  7.29735E-03  1.43514E-01
       2    -1     0     0   513     0  0.000000000E+00  0.000000000E+00  2.048860839E+03  2.048860839E+03  0.000000000E+00  0.00000E+00  9.000E+00
       1    -1     0     0   511     0  0.000000000E+00  0.000000000E+00 -1.520279547E+03  1.520279547E+03  0.000000000E+00  0.00000E+00  9.000E+00
       2     1     1     2   511     0  1.219959734E+03 -8.710638099E+02  5.282217908E+02  1.589362191E+03  2.157918644E-05  0.00000E+00  9.000E+00
       1     1     1     2   513     0 -1.393260361E+03  1.011566855E+03 -1.206401866E+02  1.725976822E+03  3.385208006E-05  0.00000E+00  9.000E+00
      22     1     1     2     0     0  1.733006270E+02 -1.405030446E+02  1.209996877E+02  2.538013737E+02  1.348699152E-06  0.00000E+00  9.000E+00
#rwgt            1          92   2.4180868130042211E-003        6024     5628710           0
<rwgt>
<wgt id='central'>  0.442613254E+01 </wgt>
<wgt id='sudakovwgt'>  0.194658353E-01 </wgt>
<wgt id='scales0.50.5'>  0.573221708E+01 </wgt>
<wgt id='scales0.51.0'>  0.513548633E+01 </wgt>
<wgt id='scales1.00.5'>  0.494043531E+01 </wgt>
<wgt id='scales1.02.0'>  0.399238729E+01 </wgt>
<wgt id='scales2.01.0'>  0.385547027E+01 </wgt>
<wgt id='scales2.02.0'>  0.347764989E+01 </wgt>
</rwgt>
<scales uborns=' 0.172332141E+04'> </scales>
</event>
<event>
      4  10001  1.48773E+06  8.94427E-01  7.29735E-03  7.51533E-01
       4    -1     0     0   511     0  0.000000000E+00  0.000000000E+00  3.161711450E+02  3.161711450E+02  0.000000000E+00  0.00000E+00  9.000E+00
       1    -1     0     0   512     0  0.000000000E+00  0.000000000E+00 -3.264765766E+02  3.264765766E+02  0.000000000E+00  0.00000E+00  9.000E+00
       4     1     1     2   512     0 -1.752694567E+02  7.340580914E+01  2.539456067E+02  3.171689872E+02  6.031565972E-06  0.00000E+00  9.000E+00
       1     1     1     2   511     0  1.752694567E+02 -7.340580914E+01 -2.642510384E+02  3.254787344E+02  3.814697266E-06  0.00000E+00  9.000E+00
#rwgt            1          94   3.2813722397098953E-005        6024     5641933           0
<rwgt>
<wgt id='central'>  0.148773415E+07 </wgt>
<wgt id='sudakovwgt'>  0.120566341E+02 </wgt>
<wgt id='scales0.50.5'>  0.174035577E+07 </wgt>
<wgt id='scales0.51.0'>  0.181228074E+07 </wgt>
<wgt id='scales1.00.5'>  0.142868565E+07 </wgt>
<wgt id='scales1.02.0'>  0.152676255E+07 </wgt>
<wgt id='scales2.01.0'>  0.124412135E+07 </wgt>
<wgt id='scales2.02.0'>  0.127676251E+07 </wgt>
</rwgt>
<scales uborns=' 0.190020513E+03'> </scales>
</event>
<event>
      5  10001  9.70081E+01  4.02373E+01  7.29735E-03  1.44681E-01
      21    -1     0     0   512   514  0.000000000E+00  0.000000000E+00  4.876587860E+02  4.876587860E+02  0.000000000E+00  0.00000E+00  9.000E+00
       1    -1     0     0   514     0  0.000000000E+00  0.000000000E+00 -2.083859582E+03  2.083859582E+03  0.000000000E+00  0.00000E+00  9.000E+00
       1     1     1     2   513     0  4.664274509E+02  8.359478802E+02 -8.947155140E+02  1.310297400E+03  1.078959322E-05  0.00000E+00  9.000E+00
      21     1     1     2   512   513 -5.025847460E+02 -8.536026857E+02 -6.153237207E+02  1.166127031E+03  2.157918644E-05  0.00000E+00  9.000E+00
      22     1     1     2     0     0  3.615729507E+01  1.765480550E+01 -8.616156103E+01  9.509393642E+01  1.348699152E-06  0.00000E+00  9.000E+00
#rwgt            1         186   3.0847325324387647E-003        6024     5646417           0
<rwgt>
<wgt id='central'>  0.970081211E+02 </wgt>
<wgt id='sudakovwgt'>  0.241019736E-01 </wgt>
<wgt id='scales0.50.5'>  0.128761089E+03 </wgt>
<wgt id='scales0.51.0'>  0.113696138E+03 </wgt>
<wgt id='scales1.00.5'>  0.109861854E+03 </wgt>
<wgt id='scales1.02.0'>  0.863175855E+02 </wgt>
<wgt id='scales2.01.0'>  0.837752479E+02 </wgt>
<wgt id='scales2.02.0'>  0.745430239E+02 </wgt>
</rwgt>
<scales uborns=' 0.973713713E+03'> </scales>
</event>
<event>
      4  10001  1.59691E+03  8.94427E-01  7.29735E-03  7.50145E-01
       1    -1     0     0   513     0  0.000000000E+00  0.000000000E+00  2.636557426E+03  2.636557426E+03  0.000000000E+00  0.00000E+00  9.000E+00
      21    -1     0     0   511   515  0.000000000E+00  0.000000000E+00 -1.416778331E+02  1.416778331E+02  0.000000000E+00  0.00000E+00  9.000E+00
       1     1     1     2   511     0  5.997057504E+02  1.118527352E+01  1.514144597E+03  1.628620876E+03  0.000000000E+00  0.00000E+00  9.000E+00
      21     1     1     2   513   515 -5.997057504E+02 -1.118527352E+01  9.807349960E+02  1.149614383E+03  2.157918644E-05  0.00000E+00  9.000E+00
#rwgt            1         181   4.4252201991066527E-003        6024     5646639           0
<rwgt>
<wgt id='central'>  0.159691080E+04 </wgt>
<wgt id='sudakovwgt'>  0.165952006E+01 </wgt>
<wgt id='scales0.50.5'>  0.210683925E+04 </wgt>
<wgt id='scales0.51.0'>  0.188992227E+04 </wgt>
<wgt id='scales1.00.5'>  0.178019632E+04 </wgt>
<wgt id='scales1.02.0'>  0.143977015E+04 </wgt>
<wgt id='scales2.01.0'>  0.136776792E+04 </wgt>
<wgt id='scales2.02.0'>  0.123317622E+04 </wgt>
</rwgt>
<scales uborns=' 0.599810051E+03'> </scales>
</event>
<event>
      5  10001  2.43201E+04  4.33354E+02  7.29735E-03  1.00650E-01
      -2    -1     0     0     0   512  0.000000000E+00  0.000000000E+00  3.577632975E+02  3.577632975E+02  0.000000000E+00  0.00000E+00  9.000E+00
      21    -1     0     0   512   514  0.000000000E+00  0.000000000E+00 -6.042958944E+02  6.042958944E+02  0.000000000E+00  0.00000E+00  9.000E+00
      -2     1     1     2     0   511 -2.674381685E+02 -2.162770265E+02  2.392687470E+01  3.447773506E+02  1.752011592E-06  0.00000E+00  9.000E+00
      21     1     1     2   511   514  3.138920351E+01  2.567616442E+02 -2.752710395E+02  3.777379637E+02  3.814697266E-06  0.00000E+00  9.000E+00
      22     1     1     2     0     0  2.360489650E+02 -4.048461769E+01  4.811567902E+00  2.395438776E+02  1.569085906E-06  0.00000E+00  9.000E+00
#rwgt            1         192   6.8975552346877062E-004        6024     5647754           0
<rwgt>
<wgt id='central'>  0.243200772E+05 </wgt>
<wgt id='sudakovwgt'>  0.185901547E-02 </wgt>
<wgt id='scales0.50.5'>  0.314558961E+05 </wgt>
<wgt id='scales0.51.0'>  0.290851148E+05 </wgt>
<wgt id='scales1.00.5'>  0.263024762E+05 </wgt>
<wgt id='scales1.02.0'>  0.225613892E+05 </wgt>
<wgt id='scales2.01.0'>  0.206488120E+05 </wgt>
<wgt id='scales2.02.0'>  0.191555908E+05 </wgt>
</rwgt>
<scales uborns=' 0.378447976E+03'> </scales>
</event>
<event>
      5  10001  2.69265E+04  1.16406E+02  7.29735E-03  1.20931E-01
      21    -1     0     0   513   512  0.000000000E+00  0.000000000E+00  4.518907841E+02  4.518907841E+02  0.000000000E+00  0.00000E+00  9.000E+00
       2    -1     0     0   515     0  0.000000000E+00  0.000000000E+00 -1.536445431E+03  1.536445431E+03  0.000000000E+00  0.00000E+00  9.000E+00
       2     1     1     2   513     0 -1.925714703E+02  1.172360115E+01  2.349958097E+02  3.040464513E+02  9.725607898E-06  0.00000E+00  9.000E+00
      21     1     1     2   515   512  3.603318628E+02  8.014046846E+01 -1.420736367E+03  1.467907821E+03  1.525878906E-05  0.00000E+00  9.000E+00
      22     1     1     2     0     0 -1.677603926E+02 -9.186406961E+01  1.011859106E+02  2.163819427E+02  6.180515955E-06  0.00000E+00  9.000E+00
#rwgt            1         187   1.2699674974464868E-004        6024     5648037           0
<rwgt>
<wgt id='central'>  0.269264726E+05 </wgt>
<wgt id='sudakovwgt'>  0.159588654E-02 </wgt>
<wgt id='scales0.50.5'>  0.357977398E+05 </wgt>
<wgt id='scales0.51.0'>  0.322155360E+05 </wgt>
<wgt id='scales1.00.5'>  0.299205899E+05 </wgt>
<wgt id='scales1.02.0'>  0.243877118E+05 </wgt>
<wgt id='scales2.01.0'>  0.228538715E+05 </wgt>
<wgt id='scales2.02.0'>  0.206990746E+05 </wgt>
</rwgt>
<scales uborns=' 0.372025110E+03'> </scales>
</event>
<event>
      5  10001  1.22153E+05  1.60479E+01  7.29735E-03  1.74664E-01
      21    -1     0     0   514   512  0.000000000E+00  0.000000000E+00  5.016618334E+01  5.016618334E+01  0.000000000E+00  0.00000E+00  9.000E+00
       2    -1     0     0   512     0  0.000000000E+00  0.000000000E+00 -3.567994853E+03  3.567994853E+03  0.000000000E+00  0.00000E+00  9.000E+00
      22     1     1     2     0     0  4.912549430E+01 -2.782819656E+00 -5.074293705E+02  5.098093999E+02  9.344061824E-06  0.00000E+00  9.000E+00
      21     1     1     2   514   511 -2.886046945E+02  3.984939847E+00 -4.362690986E+02  5.231054156E+02  7.629394531E-06  0.00000E+00  9.000E+00
       2     1     1     2   511     0  2.394792002E+02 -1.202120190E+00 -2.574130201E+03  2.585246221E+03  5.285799584E-05  0.00000E+00  9.000E+00
#rwgt            1         187   4.1413141845506360E-002        6024     5648371           0
<rwgt>
<wgt id='central'>  0.122152641E+06 </wgt>
<wgt id='sudakovwgt'>  0.879938721E-03 </wgt>
<wgt id='scales0.50.5'>  0.160336042E+06 </wgt>
<wgt id='scales0.51.0'>  0.147083076E+06 </wgt>
<wgt id='scales1.00.5'>  0.133159634E+06 </wgt>
<wgt id='scales1.02.0'>  0.112245264E+06 </wgt>
<wgt id='scales2.01.0'>  0.103129839E+06 </wgt>
<wgt id='scales2.02.0'>  0.947650574E+05 </wgt>
</rwgt>
<scales uborns=' 0.288652909E+03'> </scales>
</event>
<event>
      5  10001  4.05007E+05  1.45247E+01  7.29735E-03  1.78711E-01
       5    -1     0     0   514     0  0.000000000E+00  0.000000000E+00  1.148714367E+03  1.148714367E+03  0.000000000E+00  0.00000E+00  9.000E+00
      21    -1     0     0   511   514  0.000000000E+00  0.000000000E+00 -5.439647334E+01  5.439647334E+01  0.000000000E+00  0.00000E+00  9.000E+00
       5     1     1     2   513     0 -1.606841130E+02  1.449787871E+02  6.856985806E+02  7.190415679E+02  1.525878906E-05  0.00000E+00  9.000E+00
      21     1     1     2   511   513  1.827442912E+02 -1.464105044E+02  3.471151210E+02  4.187128121E+02  5.394796609E-06  0.00000E+00  9.000E+00
      22     1     1     2     0     0 -2.206017823E+01  1.431717253E+00  6.150419199E+01  6.535646036E+01  1.168007728E-06  0.00000E+00  9.000E+00
#rwgt            1         185   1.2187673916068506E-004        6024     5649235           0
<rwgt>
<wgt id='central'>  0.405007008E+06 </wgt>
<wgt id='sudakovwgt'>  0.207476027E-01 </wgt>
<wgt id='scales0.50.5'>  0.455979642E+06 </wgt>
<wgt id='scales0.51.0'>  0.490300478E+06 </wgt>
<wgt id='scales1.00.5'>  0.376656673E+06 </wgt>
<wgt id='scales1.02.0'>  0.423392944E+06 </wgt>
<wgt id='scales2.01.0'>  0.340418742E+06 </wgt>
<wgt id='scales2.02.0'>  0.355872599E+06 </wgt>
</rwgt>
<scales uborns=' 0.236180401E+03'> </scales>
</event>
<event>
      5  10001  4.17826E+03  1.43170E+02  7.29735E-03  1.17201E-01
       2    -1     0     0   513     0  0.000000000E+00  0.000000000E+00  6.061289157E+02  6.061289157E+02  0.000000000E+00  0.00000E+00  9.000E+00
       4    -1     0     0   512     0  0.000000000E+00  0.000000000E+00 -7.399285695E+02  7.399285695E+02  0.000000000E+00  0.00000E+00  9.000E+00
      22     1     1     2     0     0 -9.066896112E+00  4.005290155E+01  4.086998272E+01  5.793788929E+01  1.066240300E-06  0.00000E+00  9.000E+00
       4     1     1     2   513     0  2.192296629E+02 -4.591514330E+02 -5.032189224E+02  7.156192895E+02  1.427329020E-05  0.00000E+00  9.000E+00
       2     1     1     2   512     0 -2.101627668E+02  4.190985315E+02  3.285492859E+02  5.725003065E+02  1.144409180E-05  0.00000E+00  9.000E+00
#rwgt            1         107   5.2961951822684516E-005        6024     5649350           0
<rwgt>
<wgt id='central'>  0.417826433E+04 </wgt>
<wgt id='sudakovwgt'>  0.218247097E-02 </wgt>
<wgt id='scales0.50.5'>  0.496369191E+04 </wgt>
<wgt id='scales0.51.0'>  0.496256843E+04 </wgt>
<wgt id='scales1.00.5'>  0.417920592E+04 </wgt>
<wgt id='scales1.02.0'>  0.414767452E+04 </wgt>
<wgt id='scales2.01.0'>  0.356801893E+04 </wgt>
<wgt id='scales2.02.0'>  0.354190051E+04 </wgt>
</rwgt>
<scales uborns=' 0.509400480E+03'> </scales>
</event>
<event>
      5  10001  3.98254E+01  1.63540E+01  7.29735E-03  1.73919E-01
      21    -1     0     0   511   512  0.000000000E+00  0.000000000E+00  5.225059945E+02  5.225059945E+02  0.000000000E+00  0.00000E+00  9.000E+00
       3    -1     0     0   514     0  0.000000000E+00  0.000000000E+00 -3.851644410E+03  3.851644410E+03  0.000000000E+00  0.00000E+00  9.000E+00
       3     1     1     2   511     0  1.126940902E+03  2.114836961E+02 -2.707785647E+03  2.940548292E+03  6.103515625E-05  0.00000E+00  9.000E+00
      21     1     1     2   514   512 -1.118559818E+03 -1.974405254E+02 -3.889137638E+02  1.200588499E+03  1.321449896E-05  0.00000E+00  9.000E+00
      22     1     1     2     0     0 -8.381083529E+00 -1.404317073E+01 -2.324390053E+02  2.330136142E+02  2.697398305E-06  0.00000E+00  9.000E+00
#rwgt            1         188   8.8721907594322628E-004        6024     5650341           0
<rwgt>
<wgt id='central'>  0.398254365E+02 </wgt>
<wgt id='sudakovwgt'>  0.288519421E-01 </wgt>
<wgt id='scales0.50.5'>  0.536525512E+02 </wgt>
<wgt id='scales0.51.0'>  0.465393244E+02 </wgt>
<wgt id='scales1.00.5'>  0.459124480E+02 </wgt>
<wgt id='scales1.02.0'>  0.348606442E+02 </wgt>
<wgt id='scales2.01.0'>  0.344791351E+02 </wgt>
<wgt id='scales2.02.0'>  0.301808609E+02 </wgt>
</rwgt>
<scales uborns=' 0.114120689E+04'> </scales>
</event>
<event>
      5  10001  4.02944E+05  2.04236E+01  7.29735E-03  1.65621E-01
       2    -1     0     0   515     0  0.000000000E+00  0.000000000E+00  4.002549057E+02  4.002549057E+02  0.000000000E+00  0.00000E+00  9.000E+00
      21    -1     0     0   513   511  0.000000000E+00  0.000000000E+00 -1.397163984E+02  1.397163984E+02  0.000000000E+00  0.00000E+00  9.000E+00
      22     1     1     2     0     0 -3.368636244E+01  8.685491034E+01  4.563823611E+01  1.037371441E+02  1.168007728E-06  0.00000E+00  9.000E+00
      21     1     1     2   515   511  7.982107357E+01 -2.221929241E+02  1.224072542E+02  2.659410371E+02  5.046370146E-06  0.00000E+00  9.000E+00
       2     1     1     2   513     0 -4.613471113E+01  1.353380138E+02  9.249301693E+01  1.702931230E+02  1.348699152E-06  0.00000E+00  9.000E+00
#rwgt            1         182   2.8596371609654783E-003        6024     5650972           0
<rwgt>
<wgt id='central'>  0.402944419E+06 </wgt>
<wgt id='sudakovwgt'>  0.922490972E-03 </wgt>
<wgt id='scales0.50.5'>  0.493537835E+06 </wgt>
<wgt id='scales0.51.0'>  0.487791489E+06 </wgt>
<wgt id='scales1.00.5'>  0.407690815E+06 </wgt>
<wgt id='scales1.02.0'>  0.396349761E+06 </wgt>
<wgt id='scales2.01.0'>  0.338691314E+06 </wgt>
<wgt id='scales2.02.0'>  0.333148580E+06 </wgt>
</rwgt>
<scales uborns=' 0.236382167E+03'> </scales>
</event>
<event>
      5  10001  8.86592E+04  5.50229E+00  7.29735E-03  2.31475E-01
       2    -1     0     0   511     0  0.000000000E+00  0.000000000E+00  3.619758678E+03  3.619758678E+03  0.000000000E+00  0.00000E+00  9.000E+00
       1    -1     0     0   512     0  0.000000000E+00  0.000000000E+00 -4.302432722E+02  4.302432722E+02  0.000000000E+00  0.00000E+00  9.000E+00
       2     1     1     2   512     0 -2.542265594E+02  1.720958568E+02  3.395586163E+03  3.409435953E+03  0.000000000E+00  0.00000E+00  9.000E+00
       1     1     1     2   511     0  2.516790120E+02 -1.672188449E+02 -3.693442640E+02  4.771998035E+02  2.905186884E-05  0.00000E+00  9.000E+00
      22     1     1     2     0     0  2.547547422E+00 -4.877011965E+00  1.632735067E+02  1.633661936E+02  1.907348633E-06  0.00000E+00  9.000E+00
#rwgt            1          92   1.6029642492750970E-003        6024     5652494           0
<rwgt>
<wgt id='central'>  0.886592243E+05 </wgt>
<wgt id='sudakovwgt'>  0.668605823E-01 </wgt>
<wgt id='scales0.50.5'>  0.120772232E+06 </wgt>
<wgt id='scales0.51.0'>  0.106605245E+06 </wgt>
<wgt id='scales1.00.5'>  0.100441300E+06 </wgt>
<wgt id='scales1.02.0'>  0.789570182E+05 </wgt>
<wgt id='scales2.01.0'>  0.749382226E+05 </wgt>
<wgt id='scales2.02.0'>  0.667375592E+05 </wgt>
</rwgt>
<scales uborns=' 0.304578995E+03'> </scales>
</event>
<event>
      5  10001  1.16679E+02  1.66932E+01  7.29735E-03  1.73116E-01
       1    -1     0     0   512     0  0.000000000E+00  0.000000000E+00  4.603042966E+02  4.603042966E+02  0.000000000E+00  0.00000E+00  9.000E+00
       2    -1     0     0   513     0  0.000000000E+00  0.000000000E+00 -3.296023815E+03  3.296023815E+03  0.000000000E+00  0.00000E+00  9.000E+00
       1     1     1     2   513     0  6.961803575E+02 -6.458085148E+02 -2.279034570E+02  9.765632154E+02  3.099074709E-05  0.00000E+00  9.000E+00
       2     1     1     2   512     0 -6.919202141E+02  6.296680335E+02 -2.475176548E+03  2.646079054E+03  4.315837288E-05  0.00000E+00  9.000E+00
      22     1     1     2     0     0 -4.260143473E+00  1.614048129E+01 -1.326395135E+02  1.336858426E+02  1.907348633E-06  0.00000E+00  9.000E+00
#rwgt            1          96   1.6817792291117881E-003        6024     5687457           0
<rwgt>
<wgt id='central'>  0.116678557E+03 </wgt>
<wgt id='sudakovwgt'>  0.684472878E-01 </wgt>
<wgt id='scales0.50.5'>  0.151933338E+03 </wgt>
<wgt id='scales0.51.0'>  0.136835403E+03 </wgt>
<wgt id='scales1.00.5'>  0.129552949E+03 </wgt>
<wgt id='scales1.02.0'>  0.105775382E+03 </wgt>
<wgt id='scales2.01.0'>  0.100709978E+03 </wgt>
<wgt id='scales2.02.0'>  0.912986601E+02 </wgt>
</rwgt>
<scales uborns=' 0.942542160E+03'> </scales>
</event>
<event>
      5  10001  5.36158E+03  7.78579E+02  7.29735E-03  9.36786E-02
       1    -1     0     0   513     0  0.000000000E+00  0.000000000E+00  1.794040811E+03  1.794040811E+03  0.000000000E+00  0.00000E+00  9.000E+00
      21    -1     0     0   511   514  0.000000000E+00  0.000000000E+00 -1.478178386E+02  1.478178386E+02  0.000000000E+00  0.00000E+00  9.000E+00
      22     1     1     2     0     0 -3.151332913E+02 -4.835284612E+00  7.979777759E+02  8.579632288E+02  1.525878906E-05  0.00000E+00  9.000E+00
      21     1     1     2   513   514  7.030141218E+01 -2.486714568E+02  5.986139881E+02  6.520111109E+02  1.525878906E-05  0.00000E+00  9.000E+00
       1     1     1     2   511     0  2.448318791E+02  2.535067414E+02  2.496312084E+02  4.318843099E+02  6.031565972E-06  0.00000E+00  9.000E+00
#rwgt            1         181   1.7592706756992742E-003        6024     5707569           0
<rwgt>
<wgt id='central'>  0.536158421E+04 </wgt>
<wgt id='sudakovwgt'>  0.227813578E-01 </wgt>
<wgt id='scales0.50.5'>  0.692249532E+04 </wgt>
<wgt id='scales0.51.0'>  0.637403763E+04 </wgt>
<wgt id='scales1.00.5'>  0.582292020E+04 </wgt>
<wgt id='scales1.02.0'>  0.495076609E+04 </wgt>
<wgt id='scales2.01.0'>  0.457488471E+04 </wgt>
<wgt id='scales2.02.0'>  0.422434881E+04 </wgt>
</rwgt>
<scales uborns=' 0.488347650E+03'> </scales>
</event>
<event>
      5  10001  1.46831E+02  2.36666E+02  7.29735E-03  1.09050E-01
       2    -1     0     0   511     0  0.000000000E+00  0.000000000E+00  2.293634700E+03  2.293634700E+03  0.000000000E+00  0.00000E+00  9.000E+00
      21    -1     0     0   512   515  0.000000000E+00  0.000000000E+00 -1.265521736E+03  1.265521736E+03  0.000000000E+00  0.00000E+00  9.000E+00
       2     1     1     2   512     0 -1.218813803E+02  9.875338639E+02  1.818179488E+03  2.072644411E+03  3.051757812E-05  0.00000E+00  9.000E+00
      21     1     1     2   511   515  1.077757212E+02 -8.562263603E+02 -9.471171133E+02  1.281315735E+03  0.000000000E+00  0.00000E+00  9.000E+00
      22     1     1     2     0     0  1.410565911E+01 -1.313075037E+02  1.570505893E+02  2.051962907E+02  3.814697266E-06  0.00000E+00  9.000E+00
#rwgt            1         182   7.9416031079118758E-003        6024     5707750           0
<rwgt>
<wgt id='central'>  0.146831422E+03 </wgt>
<wgt id='sudakovwgt'>  0.761605027E-03 </wgt>
<wgt id='scales0.50.5'>  0.201907410E+03 </wgt>
<wgt id='scales0.51.0'>  0.172329244E+03 </wgt>
<wgt id='scales1.00.5'>  0.172032710E+03 </wgt>
<wgt id='scales1.02.0'>  0.126748414E+03 </wgt>
<wgt id='scales2.01.0'>  0.126652145E+03 </wgt>
<wgt id='scales2.02.0'>  0.109329491E+03 </wgt>
</rwgt>
<scales uborns=' 0.905264113E+03'> </scales>
</event>
<event>
      5  10001  2.28425E+04  5.89879E+00  7.29735E-03  2.26625E-01
      21    -1     0     0   512   514  0.000000000E+00  0.000000000E+00  4.703365457E+02  4.703365457E+02  0.000000000E+00  0.00000E+00  9.000E+00
       2    -1     0     0   514     0  0.000000000E+00  0.000000000E+00 -1.020367479E+03  1.020367479E+03  0.000000000E+00  0.00000E+00  9.000E+00
       2     1     1     2   513     0  3.728346744E+02  2.386754288E+01 -8.800677344E+02  9.560829311E+02  2.412626389E-05  0.00000E+00  9.000E+00
      21     1     1     2   512   513 -3.816555939E+02 -1.891155472E+01  3.461496038E+02  5.155949839E+02  1.321449896E-05  0.00000E+00  9.000E+00
      22     1     1     2     0     0  8.820919499E+00 -4.955988156E+00 -1.611280301E+01  1.902610996E+01  3.371747881E-07  0.00000E+00  9.000E+00
#rwgt            1         187   8.3826320556858007E-003        6024     5708649           0
<rwgt>
<wgt id='central'>  0.228424537E+05 </wgt>
<wgt id='sudakovwgt'>  0.813925009E-01 </wgt>
<wgt id='scales0.50.5'>  0.298469741E+05 </wgt>
<wgt id='scales0.51.0'>  0.273110638E+05 </wgt>
<wgt id='scales1.00.5'>  0.249634914E+05 </wgt>
<wgt id='scales1.02.0'>  0.210044292E+05 </wgt>
<wgt id='scales2.01.0'>  0.193983728E+05 </wgt>
<wgt id='scales2.02.0'>  0.178374411E+05 </wgt>
</rwgt>
<scales uborns=' 0.382458453E+03'> </scales>
</event>
<event>
      5  10001  4.12283E+01  1.02312E+02  7.29735E-03  1.23383E-01
      21    -1     0     0   511   514  0.000000000E+00  0.000000000E+00  7.071914404E+02  7.071914404E+02  0.000000000E+00  0.00000E+00  9.000E+00
       2    -1     0     0   513     0  0.000000000E+00  0.000000000E+00 -1.879337610E+03  1.879337610E+03  0.000000000E+00  0.00000E+00  9.000E+00
      22     1     1     2     0     0 -4.317789652E+02 -6.179778630E+02 -5.587765489E+02  9.383820893E+02  2.642899792E-05  0.00000E+00  9.000E+00
      21     1     1     2   513   514  5.625368726E+02  9.796766112E+02 -3.525018677E+02  1.183415211E+03  1.375408659E-05  0.00000E+00  9.000E+00
       2     1     1     2   511     0 -1.307579074E+02 -3.616987482E+02 -2.608677532E+02  4.647317500E+02  9.344061824E-06  0.00000E+00  9.000E+00
#rwgt            1         187   7.7759496201223700E-003        6024     5710750           0
<rwgt>
<wgt id='central'>  0.412282875E+02 </wgt>
<wgt id='sudakovwgt'>  0.665801989E-03 </wgt>
<wgt id='scales0.50.5'>  0.543103538E+02 </wgt>
<wgt id='scales0.51.0'>  0.481841993E+02 </wgt>
<wgt id='scales1.00.5'>  0.464700793E+02 </wgt>
<wgt id='scales1.02.0'>  0.368544475E+02 </wgt>
<wgt id='scales2.01.0'>  0.356902502E+02 </wgt>
<wgt id='scales2.02.0'>  0.319039217E+02 </wgt>
</rwgt>
<scales uborns=' 0.113411187E+04'> </scales>
</event>
<event>
      5  10001  1.96733E+05  2.47676E+00  7.29735E-03  3.24647E-01
       2    -1     0     0   515     0  0.000000000E+00  0.000000000E+00  2.389670295E+03  2.389670295E+03  0.000000000E+00  0.00000E+00  9.000E+00
      21    -1     0     0   511   512  0.000000000E+00  0.000000000E+00 -3.163096108E+01  3.163096108E+01  0.000000000E+00  0.00000E+00  9.000E+00
       2     1     1     2   511     0 -2.020549444E+01  1.977970880E+02  6.635660259E+02  6.927133757E+02  1.078959322E-05  0.00000E+00  9.000E+00
      21     1     1     2   515   512  2.811943466E+01 -2.650069070E+02  1.476281688E+03  1.500142322E+03  2.157918644E-05  0.00000E+00  9.000E+00
      22     1     1     2     0     0 -7.913940222E+00  6.720981895E+01  2.181916199E+02  2.284455585E+02  3.814697266E-06  0.00000E+00  9.000E+00
#rwgt            1         182   7.0737916326666372E-003        6024     5711123           0
<rwgt>
<wgt id='central'>  0.196733327E+06 </wgt>
<wgt id='sudakovwgt'>  0.249357246E-02 </wgt>
<wgt id='scales0.50.5'>  0.245933319E+06 </wgt>
<wgt id='scales0.51.0'>  0.237383561E+06 </wgt>
<wgt id='scales1.00.5'>  0.203818661E+06 </wgt>
<wgt id='scales1.02.0'>  0.189209455E+06 </wgt>
<wgt id='scales2.01.0'>  0.165806747E+06 </wgt>
<wgt id='scales2.02.0'>  0.159465897E+06 </wgt>
</rwgt>
<scales uborns=' 0.266510338E+03'> </scales>
</event>
<event>
      5  10001  2.64849E+08  4.33753E+00  7.29735E-03  2.55446E-01
       2    -1     0     0   511     0  0.000000000E+00  0.000000000E+00  8.109635730E+01  8.109635730E+01  0.000000000E+00  0.00000E+00  9.000E+00
      21    -1     0     0   513   514  0.000000000E+00  0.000000000E+00 -9.498040722E+01  9.498040722E+01  0.000000000E+00  0.00000E+00  9.000E+00
       2     1     1     2   513     0  7.789671167E+01  2.218604701E+00  1.420583672E+00  7.794124681E+01  1.332800375E-07  0.00000E+00  9.000E+00
      21     1     1     2   511   514 -8.215738611E+01 -3.031519349E+00 -2.629837429E+01  8.631703593E+01  1.215700987E-06  0.00000E+00  9.000E+00
      22     1     1     2     0     0  4.260674436E+00  8.129146480E-01  1.099374070E+01  1.181848177E+01  1.192092896E-07  0.00000E+00  9.000E+00
#rwgt            1         182   1.0771920062419302E-003        6024     5718483           0
<rwgt>
<wgt id='central'>  0.264849252E+09 </wgt>
<wgt id='sudakovwgt'>  0.503891379E-01 </wgt>
<wgt id='scales0.50.5'>  0.308882237E+09 </wgt>
<wgt id='scales0.51.0'>  0.332296788E+09 </wgt>
<wgt id='scales1.00.5'>  0.246187007E+09 </wgt>
<wgt id='scales1.02.0'>  0.279266600E+09 </wgt>
<wgt id='scales2.01.0'>  0.216289556E+09 </wgt>
<wgt id='scales2.02.0'>  0.228063723E+09 </wgt>
</rwgt>
<scales uborns=' 0.800422012E+02'> </scales>
</event>
<event>
      5  10001  2.35786E+02  1.52759E+00  7.29735E-03  4.28274E-01
       2    -1     0     0   511     0  0.000000000E+00  0.000000000E+00  2.488903301E+03  2.488903301E+03  0.000000000E+00  0.00000E+00  9.000E+00
      21    -1     0     0   515   511  0.000000000E+00  0.000000000E+00 -3.148272626E+02  3.148272626E+02  0.000000000E+00  0.00000E+00  9.000E+00
       2     1     1     2   512     0  7.480922776E+02  2.834446345E+02  1.497788952E+03  1.698044363E+03  2.157918644E-05  0.00000E+00  9.000E+00
      21     1     1     2   515   512 -7.798691831E+02 -2.939381501E+02  6.146929295E+02  1.035588227E+03  7.629394531E-06  0.00000E+00  9.000E+00
      22     1     1     2     0     0  3.177690546E+01  1.049351560E+01  6.159415714E+01  7.009797276E+01  1.348699152E-06  0.00000E+00  9.000E+00
#rwgt            1         182   1.0950102623521328E-002        6024     5721541           0
<rwgt>
<wgt id='central'>  0.235786176E+03 </wgt>
<wgt id='sudakovwgt'>  0.491417599E+00 </wgt>
<wgt id='scales0.50.5'>  0.310230206E+03 </wgt>
<wgt id='scales0.51.0'>  0.277176834E+03 </wgt>
<wgt id='scales1.00.5'>  0.263903510E+03 </wgt>
<wgt id='scales1.02.0'>  0.212035424E+03 </wgt>
<wgt id='scales2.01.0'>  0.203105073E+03 </wgt>
<wgt id='scales2.02.0'>  0.182646427E+03 </wgt>
</rwgt>
<scales uborns=' 0.833438917E+03'> </scales>
</event>
<event>
      5  10001  6.66453E+00  6.73378E+02  7.29735E-03  9.53127E-02
      21    -1     0     0   513   514  0.000000000E+00  0.000000000E+00  9.188784203E+02  9.188784203E+02  0.000000000E+00  0.00000E+00  9.000E+00
       2    -1     0     0   512     0  0.000000000E+00  0.000000000E+00 -4.814397381E+03  4.814397381E+03  0.000000000E+00  0.00000E+00  9.000E+00
       2     1     1     2   513     0 -9.716596963E+02  7.123640332E+01 -1.538032916E+03  1.820643414E+03  2.157918644E-05  0.00000E+00  9.000E+00
      21     1     1     2   512   514  1.539129122E+03 -1.972933496E+02 -7.093082455E+01  1.553342944E+03  2.762365028E-05  0.00000E+00  9.000E+00
      22     1     1     2     0     0 -5.674694255E+02  1.260569463E+02 -2.286555220E+03  2.359289443E+03  3.051757812E-05  0.00000E+00  9.000E+00
#rwgt            1         187   1.6974062951954711E-002        6024     5735290           0
<rwgt>
<wgt id='central'>  0.666452866E+01 </wgt>
<wgt id='sudakovwgt'>  0.679899250E-03 </wgt>
<wgt id='scales0.50.5'>  0.943712039E+01 </wgt>
<wgt id='scales0.51.0'>  0.774293328E+01 </wgt>
<wgt id='scales1.00.5'>  0.812275784E+01 </wgt>
<wgt id='scales1.02.0'>  0.554324432E+01 </wgt>
<wgt id='scales2.01.0'>  0.579863424E+01 </wgt>
<wgt id='scales2.02.0'>  0.482303273E+01 </wgt>
</rwgt>
<scales uborns=' 0.159096970E+04'> </scales>
</event>
<event>
      5  10001  9.78979E+00  2.37508E+02  7.29735E-03  1.08996E-01
       3    -1     0     0   513     0  0.000000000E+00  0.000000000E+00  4.077145764E+03  4.077145764E+03  0.000000000E+00  0.00000E+00  9.000E+00
       2    -1     0     0   511     0  0.000000000E+00  0.000000000E+00 -6.898970807E+02  6.898970807E+02  0.000000000E+00  0.00000E+00  9.000E+00
       3     1     1     2   511     0  1.355198087E+03 -4.966866388E+02  2.753134083E+03  3.108537719E+03  4.315837288E-05  0.00000E+00  9.000E+00
       2     1     1     2   513     0 -1.255379407E+03  4.227167768E+02  7.198093424E+02  1.507578329E+03  4.247867098E-05  0.00000E+00  9.000E+00
      22     1     1     2     0     0 -9.981868013E+01  7.396986205E+01 -8.569474177E+01  1.509267974E+02  3.932099939E-06  0.00000E+00  9.000E+00
#rwgt            1          98   1.9221257989586549E-004        6024     5735833           0
<rwgt>
<wgt id='central'>  0.978978751E+01 </wgt>
<wgt id='sudakovwgt'>  0.960536064E-02 </wgt>
<wgt id='scales0.50.5'>  0.126995258E+02 </wgt>
<wgt id='scales0.51.0'>  0.113880955E+02 </wgt>
<wgt id='scales1.00.5'>  0.109171627E+02 </wgt>
<wgt id='scales1.02.0'>  0.883916207E+01 </wgt>
<wgt id='scales2.01.0'>  0.850873188E+01 </wgt>
<wgt id='scales2.02.0'>  0.768249983E+01 </wgt>
</rwgt>
<scales uborns=' 0.147820271E+04'> </scales>
</event>
<event>
      5  10001  4.04565E+04  4.30582E+00  7.29735E-03  2.56151E-01
      -1    -1     0     0     0   512  0.000000000E+00  0.000000000E+00  9.556542756E+02  9.556542756E+02  0.000000000E+00  0.00000E+00  9.000E+00
      21    -1     0     0   514   513  0.000000000E+00  0.000000000E+00 -2.916515363E+02  2.916515363E+02  0.000000000E+00  0.00000E+00  9.000E+00
      -1     1     1     2     0   513 -4.846288266E+01  3.430354517E+02 -1.092115162E+02  3.632480246E+02  9.536743164E-06  0.00000E+00  9.000E+00
      21     1     1     2   514   512  5.253136709E+01 -3.444452609E+02  4.923860392E+02  6.031965632E+02  5.394796609E-06  0.00000E+00  9.000E+00
      22     1     1     2     0     0 -4.068484429E+00  1.409809230E+00  2.808282163E+02  2.808612241E+02  0.000000000E+00  0.00000E+00  9.000E+00
#rwgt            1         191   1.1164396942012443E-004        6024     5790218           0
<rwgt>
<wgt id='central'>  0.404565186E+05 </wgt>
<wgt id='sudakovwgt'>  0.321289575E-01 </wgt>
<wgt id='scales0.50.5'>  0.523342589E+05 </wgt>
<wgt id='scales0.51.0'>  0.484843778E+05 </wgt>
<wgt id='scales1.00.5'>  0.436689310E+05 </wgt>
<wgt id='scales1.02.0'>  0.375779666E+05 </wgt>
<wgt id='scales2.01.0'>  0.342896375E+05 </wgt>
<wgt id='scales2.02.0'>  0.318498845E+05 </wgt>
</rwgt>
<scales uborns=' 0.347428823E+03'> </scales>
</event>
<event>
      4  10001  1.22306E+03  8.94427E-01  7.29735E-03  7.49472E-01
       1    -1     0     0   513     0  0.000000000E+00  0.000000000E+00  9.123159533E+02  9.123159533E+02  0.000000000E+00  0.00000E+00  9.000E+00
      21    -1     0     0   515   513  0.000000000E+00  0.000000000E+00 -9.704611891E+02  9.704611891E+02  0.000000000E+00  0.00000E+00  9.000E+00
       1     1     1     2   511     0  5.417180880E+02  3.171566679E+02  6.722043785E+02  9.197312463E+02  1.321449896E-05  0.00000E+00  9.000E+00
      21     1     1     2   515   511 -5.417180880E+02 -3.171566679E+02 -7.303496143E+02  9.630458961E+02  0.000000000E+00  0.00000E+00  9.000E+00
#rwgt            1         181   2.2398225782148365E-003        6024     5790604           0
<rwgt>
<wgt id='central'>  0.122305592E+04 </wgt>
<wgt id='sudakovwgt'>  0.208586462E+01 </wgt>
<wgt id='scales0.50.5'>  0.162936237E+04 </wgt>
<wgt id='scales0.51.0'>  0.144607870E+04 </wgt>
<wgt id='scales1.00.5'>  0.137807710E+04 </wgt>
<wgt id='scales1.02.0'>  0.109413012E+04 </wgt>
<wgt id='scales2.01.0'>  0.104841427E+04 </wgt>
<wgt id='scales2.02.0'>  0.937894808E+03 </wgt>
</rwgt>
<scales uborns=' 0.627731502E+03'> </scales>
</event>
<event>
      5  10001  2.01923E+01  9.90225E-01  7.29735E-03  6.59956E-01
      21    -1     0     0   512   514  0.000000000E+00  0.000000000E+00  2.013889829E+03  2.013889829E+03  0.000000000E+00  0.00000E+00  9.000E+00
       1    -1     0     0   511     0  0.000000000E+00  0.000000000E+00 -9.847229559E+02  9.847229559E+02  0.000000000E+00  0.00000E+00  9.000E+00
       1     1     1     2   512     0 -6.524877836E+02 -1.114309793E+03  4.213733121E+01  1.291976074E+03  3.064397624E-05  0.00000E+00  9.000E+00
      21     1     1     2   511   514  6.517848630E+02  1.115007251E+03  1.037199918E+03  1.656456563E+03  2.157918644E-05  0.00000E+00  9.000E+00
      22     1     1     2     0     0  7.029205512E-01 -6.974578313E-01 -5.017037610E+01  5.018014730E+01  1.168007728E-06  0.00000E+00  9.000E+00
#rwgt            1         186   1.1558990107275364E-003        6024     5792024           0
<rwgt>
<wgt id='central'>  0.201922862E+02 </wgt>
<wgt id='sudakovwgt'>  0.665589964E-01 </wgt>
<wgt id='scales0.50.5'>  0.273941655E+02 </wgt>
<wgt id='scales0.51.0'>  0.235441701E+02 </wgt>
<wgt id='scales1.00.5'>  0.234941901E+02 </wgt>
<wgt id='scales1.02.0'>  0.175394819E+02 </wgt>
<wgt id='scales2.01.0'>  0.175147526E+02 </wgt>
<wgt id='scales2.02.0'>  0.152137045E+02 </wgt>
</rwgt>
<scales uborns=' 0.129141217E+04'> </scales>
</event>
<event>
      5  10001  3.40837E+03  2.91421E+00  7.29735E-03  3.00744E-01
      -3    -1     0     0     0   513  0.000000000E+00  0.000000000E+00  7.021968323E+02  7.021968323E+02  0.000000000E+00  0.00000E+00  9.000E+00
      21    -1     0     0   512   514  0.000000000E+00  0.000000000E+00 -4.278848260E+02  4.278848260E+02  0.000000000E+00  0.00000E+00  9.000E+00
      22     1     1     2     0     0  8.359054960E+00 -1.356846550E+02  7.430592454E+01  1.549244004E+02  2.697398305E-06  0.00000E+00  9.000E+00
      21     1     1     2   512   513 -3.267679683E+01  5.262737519E+02 -1.721453303E+01  5.275681711E+02  9.500913069E-06  0.00000E+00  9.000E+00
      -3     1     1     2     0   514  2.431774187E+01 -3.905890969E+02  2.172206147E+02  4.475890868E+02  8.529922400E-06  0.00000E+00  9.000E+00
#rwgt            1         193   3.5499945362148759E-004        6024     5793964           0
<rwgt>
<wgt id='central'>  0.340837344E+04 </wgt>
<wgt id='sudakovwgt'>  0.372309006E-01 </wgt>
<wgt id='scales0.50.5'>  0.434222203E+04 </wgt>
<wgt id='scales0.51.0'>  0.404506298E+04 </wgt>
<wgt id='scales1.00.5'>  0.365875621E+04 </wgt>
<wgt id='scales1.02.0'>  0.318037015E+04 </wgt>
<wgt id='scales2.01.0'>  0.291244261E+04 </wgt>
<wgt id='scales2.02.0'>  0.271761737E+04 </wgt>
</rwgt>
<scales uborns=' 0.527288533E+03'> </scales>
</event>
<event>
      4  10001  4.92582E+00  8.94427E-01  7.29735E-03  7.52574E-01
      21    -1     0     0   511   514  0.000000000E+00  0.000000000E+00  2.215524665E+03  2.215524665E+03  0.000000000E+00  0.00000E+00  9.000E+00
      -1    -1     0     0     0   511  0.000000000E+00  0.000000000E+00 -1.301711515E+03  1.301711515E+03  0.000000000E+00  0.00000E+00  9.000E+00
      -1     1     1     2     0   513 -7.084247981E+02 -1.531481855E+03  2.585983139E+02  1.707095620E+03  1.829464540E-05  0.00000E+00  9.000E+00
      21     1     1     2   513   514  7.084247981E+02  1.531481855E+03  6.552148361E+02  1.810140560E+03  2.412626389E-05  0.00000E+00  9.000E+00
#rwgt            1         196   1.2250619417618241E-004        6024     5794300           0
<rwgt>
<wgt id='central'>  0.492581584E+01 </wgt>
<wgt id='sudakovwgt'>  0.361753898E+01 </wgt>
<wgt id='scales0.50.5'>  0.685448117E+01 </wgt>
<wgt id='scales0.51.0'>  0.571725370E+01 </wgt>
<wgt id='scales1.00.5'>  0.590562221E+01 </wgt>
<wgt id='scales1.02.0'>  0.416258700E+01 </wgt>
<wgt id='scales2.01.0'>  0.428944902E+01 </wgt>
<wgt id='scales2.02.0'>  0.362481876E+01 </wgt>
</rwgt>
<scales uborns=' 0.168739514E+04'> </scales>
</event>
<event>
      5  10001  2.73027E+02  9.61565E+00  7.29735E-03  1.97745E-01
       2    -1     0     0   513     0  0.000000000E+00  0.000000000E+00  1.590436633E+03  1.590436633E+03  0.000000000E+00  0.00000E+00  9.000E+00
      -2    -1     0     0     0   511  0.000000000E+00  0.000000000E+00 -4.370918370E+02  4.370918370E+02  0.000000000E+00  0.00000E+00  9.000E+00
      21     1     1     2   513   512 -4.227078266E+02  6.966749006E+02  6.812997515E+02  1.062170973E+03  1.321449896E-05  0.00000E+00  9.000E+00
      21     1     1     2   512   511  4.130938408E+02 -6.968536555E+02  4.887287752E+02  9.461011331E+02  1.525878906E-05  0.00000E+00  9.000E+00
      22     1     1     2     0     0  9.613985767E+00  1.787548386E-01 -1.668373089E+01  1.925636393E+01  2.384185791E-07  0.00000E+00  9.000E+00
#rwgt            1          32   5.5924679202509842E-005        6024     5795991           0
<rwgt>
<wgt id='central'>  0.273026538E+03 </wgt>
<wgt id='sudakovwgt'>  0.284538009E-01 </wgt>
<wgt id='scales0.50.5'>  0.342862202E+03 </wgt>
<wgt id='scales0.51.0'>  0.321116349E+03 </wgt>
<wgt id='scales1.00.5'>  0.291516264E+03 </wgt>
<wgt id='scales1.02.0'>  0.256508085E+03 </wgt>
<wgt id='scales2.01.0'>  0.235084314E+03 </wgt>
<wgt id='scales2.02.0'>  0.220861040E+03 </wgt>
</rwgt>
<scales uborns=' 0.812475155E+03'> </scales>
</event>
<event>
      5  10001  9.56654E+00  1.04739E+02  7.29735E-03  1.22930E-01
      21    -1     0     0   514   515  0.000000000E+00  0.000000000E+00  1.226193390E+03  1.226193390E+03  0.000000000E+00  0.00000E+00  9.000E+00
       1    -1     0     0   513     0  0.000000000E+00  0.000000000E+00 -3.390579762E+03  3.390579762E+03  0.000000000E+00  0.00000E+00  9.000E+00
       1     1     1     2   514     0 -1.318357881E+03  3.922792012E+02 -2.338012473E+03  2.712609961E+03  3.051757812E-05  0.00000E+00  9.000E+00
      21     1     1     2   513   515  1.434073919E+03 -3.515512140E+02  4.972920248E+02  1.558029402E+03  1.321449896E-05  0.00000E+00  9.000E+00
      22     1     1     2     0     0 -1.157160376E+02 -4.072798718E+01 -3.236659227E+02  3.461337889E+02  3.814697266E-06  0.00000E+00  9.000E+00
#rwgt            1         186   1.8795817993516246E-003        6024     5796179           0
<rwgt>
<wgt id='central'>  0.956654352E+01 </wgt>
<wgt id='sudakovwgt'>  0.277554648E-01 </wgt>
<wgt id='scales0.50.5'>  0.135253548E+02 </wgt>
<wgt id='scales0.51.0'>  0.111275650E+02 </wgt>
<wgt id='scales1.00.5'>  0.116279570E+02 </wgt>
<wgt id='scales1.02.0'>  0.797937623E+01 </wgt>
<wgt id='scales2.01.0'>  0.831522864E+01 </wgt>
<wgt id='scales2.02.0'>  0.693566720E+01 </wgt>
</rwgt>
<scales uborns=' 0.148467954E+04'> </scales>
</event>
<event>
      5  10001  2.06280E+01  3.15909E+01  7.29735E-03  1.51497E-01
      21    -1     0     0   512   513  0.000000000E+00  0.000000000E+00  1.664128242E+03  1.664128242E+03  0.000000000E+00  0.00000E+00  9.000E+00
       2    -1     0     0   513     0  0.000000000E+00  0.000000000E+00 -1.079401114E+03  1.079401114E+03  0.000000000E+00  0.00000E+00  9.000E+00
      22     1     1     2     0     0 -4.780932210E+02  3.312977965E+02 -2.865687130E+01  5.823680745E+02  1.176735180E-05  0.00000E+00  9.000E+00
      21     1     1     2   512   511  1.050577419E+03 -7.420308924E+02  6.773847595E+02  1.453675642E+03  1.525878906E-05  0.00000E+00  9.000E+00
       2     1     1     2   511     0 -5.724841984E+02  4.107330959E+02 -6.400076014E+01  7.074856400E+02  1.221299026E-05  0.00000E+00  9.000E+00
#rwgt            1         187   3.2797446198777514E-003        6024     5796419           0
<rwgt>
<wgt id='central'>  0.206279516E+02 </wgt>
<wgt id='sudakovwgt'>  0.924674125E-01 </wgt>
<wgt id='scales0.50.5'>  0.274843078E+02 </wgt>
<wgt id='scales0.51.0'>  0.240538640E+02 </wgt>
<wgt id='scales1.00.5'>  0.235698639E+02 </wgt>
<wgt id='scales1.02.0'>  0.182186722E+02 </wgt>
<wgt id='scales2.01.0'>  0.178916162E+02 </wgt>
<wgt id='scales2.02.0'>  0.158018950E+02 </wgt>
</rwgt>
<scales uborns=' 0.128635059E+04'> </scales>
</event>
<event>
      5  10001  2.81619E+00  3.84343E+01  7.29735E-03  1.45924E-01
       1    -1     0     0   514     0  0.000000000E+00  0.000000000E+00  1.338569798E+03  1.338569798E+03  0.000000000E+00  0.00000E+00  9.000E+00
       2    -1     0     0   511     0  0.000000000E+00  0.000000000E+00 -2.738017360E+03  2.738017360E+03  0.000000000E+00  0.00000E+00  9.000E+00
       1     1     1     2   511     0 -7.804244308E+02 -1.698125321E+03 -6.887521058E+02  1.991750828E+03  2.157918644E-05  0.00000E+00  9.000E+00
       2     1     1     2   514     0  8.072374286E+02  1.725661782E+03 -7.319641327E+02  2.040909686E+03  2.854658040E-05  0.00000E+00  9.000E+00
      22     1     1     2     0     0 -2.681299775E+01 -2.753646168E+01  2.126867648E+01  4.392664532E+01  5.331201500E-07  0.00000E+00  9.000E+00
#rwgt            1          96   1.7084548383273874E-003        6024     5797672           0
<rwgt>
<wgt id='central'>  0.281619459E+01 </wgt>
<wgt id='sudakovwgt'>  0.118082421E+00 </wgt>
<wgt id='scales0.50.5'>  0.367290479E+01 </wgt>
<wgt id='scales0.51.0'>  0.326268658E+01 </wgt>
<wgt id='scales1.00.5'>  0.317027011E+01 </wgt>
<wgt id='scales1.02.0'>  0.252036518E+01 </wgt>
<wgt id='scales2.01.0'>  0.245623079E+01 </wgt>
<wgt id='scales2.02.0'>  0.219821765E+01 </wgt>
</rwgt>
<scales uborns=' 0.188690709E+04'> </scales>
</event>
<event>
      5  10001  1.19726E+04  4.25929E+01  7.29735E-03  1.43168E-01
       2    -1     0     0   511     0  0.000000000E+00  0.000000000E+00  1.087567640E+03  1.087567640E+03  0.000000000E+00  0.00000E+00  9.000E+00
       1    -1     0     0   512     0  0.000000000E+00  0.000000000E+00 -8.278749976E+02  8.278749976E+02  0.000000000E+00  0.00000E+00  9.000E+00
       2     1     1     2   512     0  2.020370054E+02  3.517115098E+02  7.442707336E+02  8.476195270E+02  1.078959322E-05  0.00000E+00  9.000E+00
       1     1     1     2   511     0 -2.299085961E+02 -3.839191203E+02 -7.095383346E+02  8.388662002E+02  1.078959322E-05  0.00000E+00  9.000E+00
      22     1     1     2     0     0  2.787159070E+01  3.220761052E+01  2.249602436E+02  2.289569107E+02  3.814697266E-06  0.00000E+00  9.000E+00
#rwgt            1          92   1.1021427468152632E-003        6024     5812028           0
<rwgt>
<wgt id='central'>  0.119725837E+05 </wgt>
<wgt id='sudakovwgt'>  0.336843177E-01 </wgt>
<wgt id='scales0.50.5'>  0.151689581E+05 </wgt>
<wgt id='scales0.51.0'>  0.142778388E+05 </wgt>
<wgt id='scales1.00.5'>  0.127198430E+05 </wgt>
<wgt id='scales1.02.0'>  0.113038897E+05 </wgt>
<wgt id='scales2.01.0'>  0.101893125E+05 </wgt>
<wgt id='scales2.02.0'>  0.962020486E+04 </wgt>
</rwgt>
<scales uborns=' 0.426403664E+03'> </scales>
</event>
<event>
      5  10001  1.89473E+06  3.31154E+00  7.29735E-03  2.84426E-01
      -1    -1     0     0     0   513  0.000000000E+00  0.000000000E+00  1.214995375E+02  1.214995375E+02  0.000000000E+00  0.00000E+00  9.000E+00
      21    -1     0     0   513   514  0.000000000E+00  0.000000000E+00 -4.019682379E+02  4.019682379E+02  0.000000000E+00  0.00000E+00  9.000E+00
      -1     1     1     2     0   512 -6.865590899E+01 -1.356727864E+02  8.909285798E+00  1.523158369E+02  3.697410207E-06  0.00000E+00  9.000E+00
      21     1     1     2   512   514  8.261122152E+01  1.626688885E+02 -2.877561070E+02  3.407188846E+02  3.814697266E-06  0.00000E+00  9.000E+00
      22     1     1     2     0     0 -1.395531253E+01 -2.699610212E+01 -1.621879269E+00  3.043305390E+01  8.895880912E-07  0.00000E+00  9.000E+00
#rwgt            1         191   8.7821345613896967E-004        6024     5821444           0
<rwgt>
<wgt id='central'>  0.189472833E+07 </wgt>
<wgt id='sudakovwgt'>  0.660959872E-03 </wgt>
<wgt id='scales0.50.5'>  0.237906333E+07 </wgt>
<wgt id='scales0.51.0'>  0.231084392E+07 </wgt>
<wgt id='scales1.00.5'>  0.195066514E+07 </wgt>
<wgt id='scales1.02.0'>  0.183444276E+07 </wgt>
<wgt id='scales2.01.0'>  0.158292472E+07 </wgt>
<wgt id='scales2.02.0'>  0.153255862E+07 </wgt>
</rwgt>
<scales uborns=' 0.182498347E+03'> </scales>
</event>
<event>
      5  10001  1.01217E+03  8.09300E+00  7.29735E-03  2.07016E-01
       1    -1     0     0   512     0  0.000000000E+00  0.000000000E+00  1.716562301E+03  1.716562301E+03  0.000000000E+00  0.00000E+00  9.000E+00
      21    -1     0     0   515   512  0.000000000E+00  0.000000000E+00 -3.032657438E+02  3.032657438E+02  0.000000000E+00  0.00000E+00  9.000E+00
      22     1     1     2     0     0  1.418029155E+01  1.841762489E+01  4.073503129E+01  4.690023827E+01  6.743495762E-07  0.00000E+00  9.000E+00
      21     1     1     2   515   511 -3.918896616E+02 -5.165284820E+02  2.635858429E+02  6.998976183E+02  1.321449896E-05  0.00000E+00  9.000E+00
       1     1     1     2   511     0  3.777093701E+02  4.981108571E+02  1.108975683E+03  1.273030188E+03  1.525878906E-05  0.00000E+00  9.000E+00
#rwgt            1         181   4.4428406352373688E-003        6024     5821845           0
<rwgt>
<wgt id='central'>  0.101217204E+04 </wgt>
<wgt id='sudakovwgt'>  0.891032652E-03 </wgt>
<wgt id='scales0.50.5'>  0.132680643E+04 </wgt>
<wgt id='scales0.51.0'>  0.119592107E+04 </wgt>
<wgt id='scales1.00.5'>  0.112294507E+04 </wgt>
<wgt id='scales1.02.0'>  0.917445736E+03 </wgt>
<wgt id='scales2.01.0'>  0.868135256E+03 </wgt>
<wgt id='scales2.02.0'>  0.786890531E+03 </wgt>
</rwgt>
<scales uborns=' 0.648367302E+03'> </scales>
</event>
<event>
      5  10001  1.90949E+02  4.46852E+02  7.29735E-03  1.00259E-01
       2    -1     0     0   512     0  0.000000000E+00  0.000000000E+00  2.738710802E+03  2.738710802E+03  0.000000000E+00  0.00000E+00  9.000E+00
       1    -1     0     0   511     0  0.000000000E+00  0.000000000E+00 -5.746724103E+02  5.746724103E+02  0.000000000E+00  0.00000E+00  9.000E+00
       2     1     1     2   511     0  3.868137110E+02 -6.625837830E+02  2.025307757E+03  2.165759365E+03  2.157918644E-05  0.00000E+00  9.000E+00
       1     1     1     2   512     0 -4.507753244E+02  3.827827079E+02 -2.684504434E+02  6.494510259E+02  7.629394531E-06  0.00000E+00  9.000E+00
      22     1     1     2     0     0  6.396161337E+01  2.798010751E+02  4.071810786E+02  4.981728218E+02  9.344061824E-06  0.00000E+00  9.000E+00
#rwgt            1          92   1.9915588206771912E-003        6024     5822187           0
<rwgt>
<wgt id='central'>  0.190948848E+03 </wgt>
<wgt id='sudakovwgt'>  0.210658972E-04 </wgt>
<wgt id='scales0.50.5'>  0.248074495E+03 </wgt>
<wgt id='scales0.51.0'>  0.224307858E+03 </wgt>
<wgt id='scales1.00.5'>  0.211181085E+03 </wgt>
<wgt id='scales1.02.0'>  0.173757218E+03 </wgt>
<wgt id='scales2.01.0'>  0.164582865E+03 </wgt>
<wgt id='scales2.02.0'>  0.149764914E+03 </wgt>
</rwgt>
<scales uborns=' 0.864626205E+03'> </scales>
</event>
<event>
      5  10001  5.01618E+03  1.85833E+00  7.29735E-03  3.78646E-01
       3    -1     0     0   512     0  0.000000000E+00  0.000000000E+00  1.380517743E+03  1.380517743E+03  0.000000000E+00  0.00000E+00  9.000E+00
      -5    -1     0     0     0   512  0.000000000E+00  0.000000000E+00 -3.806858438E+02  3.806858438E+02  0.000000000E+00  0.00000E+00  9.000E+00
       3     1     1     2   513     0  3.296921706E+02 -3.676980983E+02  1.144502851E+03  1.246509364E+03  0.000000000E+00  0.00000E+00  9.000E+00
      -5     1     1     2     0   513 -3.177919753E+02  3.529604298E+02 -1.376130038E+02  4.944796693E+02  1.414527605E-05  0.00000E+00  9.000E+00
      22     1     1     2     0     0 -1.190019533E+01  1.473766858E+01 -7.057948223E+00  2.021455310E+01  1.460009660E-07  0.00000E+00  9.000E+00
#rwgt            1         152   5.2499530827800652E-006        6024     5828301           0
<rwgt>
<wgt id='central'>  0.501618333E+04 </wgt>
<wgt id='sudakovwgt'>  0.516163121E-01 </wgt>
<wgt id='scales0.50.5'>  0.594511074E+04 </wgt>
<wgt id='scales0.51.0'>  0.596190219E+04 </wgt>
<wgt id='scales1.00.5'>  0.500205214E+04 </wgt>
<wgt id='scales1.02.0'>  0.497190611E+04 </wgt>
<wgt id='scales2.01.0'>  0.428107393E+04 </wgt>
<wgt id='scales2.02.0'>  0.424328824E+04 </wgt>
</rwgt>
<scales uborns=' 0.493880313E+03'> </scales>
</event>
<event>
      5  10001  1.69707E+02  6.69850E+00  7.29735E-03  2.18292E-01
      21    -1     0     0   511   514  0.000000000E+00  0.000000000E+00  1.870207288E+03  1.870207288E+03  0.000000000E+00  0.00000E+00  9.000E+00
       2    -1     0     0   513     0  0.000000000E+00  0.000000000E+00 -6.863445832E+02  6.863445832E+02  0.000000000E+00  0.00000E+00  9.000E+00
       2     1     1     2   511     0  7.319377431E+02 -4.898554145E+02 -1.941252390E+02  9.018734918E+02  3.214321050E-05  0.00000E+00  9.000E+00
      21     1     1     2   513   514 -7.381453873E+02  4.873384709E+02  1.386029364E+03  1.644212515E+03  1.525878906E-05  0.00000E+00  9.000E+00
      22     1     1     2     0     0  6.207644196E+00  2.516943588E+00 -8.041420644E+00  1.046586344E+01  0.000000000E+00  0.00000E+00  9.000E+00
#rwgt            1         187   2.2172231004804533E-003        6024     5828695           0
<rwgt>
<wgt id='central'>  0.169707033E+03 </wgt>
<wgt id='sudakovwgt'>  0.114515337E+00 </wgt>
<wgt id='scales0.50.5'>  0.227597720E+03 </wgt>
<wgt id='scales0.51.0'>  0.199275223E+03 </wgt>
<wgt id='scales1.00.5'>  0.193827038E+03 </wgt>
<wgt id='scales1.02.0'>  0.149980575E+03 </wgt>
<wgt id='scales2.01.0'>  0.146323565E+03 </wgt>
<wgt id='scales2.02.0'>  0.129315186E+03 </wgt>
</rwgt>
<scales uborns=' 0.882615930E+03'> </scales>
</event>
<event>
      5  10001  4.78667E+05  2.42894E+01  7.29735E-03  1.59694E-01
      21    -1     0     0   515   513  0.000000000E+00  0.000000000E+00  2.406284515E+02  2.406284515E+02  0.000000000E+00  0.00000E+00  9.000E+00
      -1    -1     0     0     0   512  0.000000000E+00  0.000000000E+00 -2.922581455E+02  2.922581455E+02  0.000000000E+00  0.00000E+00  9.000E+00
      -1     1     1     2     0   513  1.901452474E+02  1.073854954E+02 -1.289683676E+02  2.536132874E+02  5.394796609E-06  0.00000E+00  9.000E+00
      21     1     1     2   515   512 -2.063612926E+02 -1.254690839E+02  8.095133010E+01  2.547166896E+02  7.262967211E-06  0.00000E+00  9.000E+00
      22     1     1     2     0     0  1.621604521E+01  1.808358857E+01 -3.612656435E+00  2.455661997E+01  5.230286352E-07  0.00000E+00  9.000E+00
#rwgt            1         196   1.2883279416642298E-003        6024     5830542           0
<rwgt>
<wgt id='central'>  0.478666843E+06 </wgt>
<wgt id='sudakovwgt'>  0.211341722E-01 </wgt>
<wgt id='scales0.50.5'>  0.598781644E+06 </wgt>
<wgt id='scales0.51.0'>  0.579923287E+06 </wgt>
<wgt id='scales1.00.5'>  0.494232633E+06 </wgt>
<wgt id='scales1.02.0'>  0.462202022E+06 </wgt>
<wgt id='scales2.01.0'>  0.402075319E+06 </wgt>
<wgt id='scales2.02.0'>  0.388244908E+06 </wgt>
</rwgt>
<scales uborns=' 0.229671819E+03'> </scales>
</event>
<event>
      5  10001  1.81712E+03  5.87571E+01  7.29735E-03  1.35191E-01
       2    -1     0     0   502     0  0.000000000E+00  0.000000000E+00  1.920695802E+03  1.920695802E+03  0.000000000E+00  0.00000E+00  9.000E+00
      21    -1     0     0   501   511  0.000000000E+00  0.000000000E+00 -3.835600984E+02  3.835600984E+02  0.000000000E+00  0.00000E+00  9.000E+00
      22     1     1     2     0     0 -3.257404408E+02 -4.603091515E+02  1.204204689E+03  1.329699321E+03  2.642899792E-05  0.00000E+00  9.000E+00
       2     1     1     2   501     0  3.821763989E+02  4.766610589E+02  5.050536292E+02  7.926813567E+02  1.705984480E-05  0.00000E+00  9.000E+00
      21     1     1     2   502   511 -5.643595806E+01 -1.635190736E+01 -1.721226148E+02  1.818752231E+02  5.394796609E-06  0.00000E+00  9.000E+00
#rwgt            1          12   6.7420934398039142E-005        6024     5830685           0
<rwgt>
<wgt id='central'>  0.181712435E+04 </wgt>
<wgt id='sudakovwgt'>  0.100000000E+01 </wgt>
<wgt id='scales0.50.5'>  0.223719561E+04 </wgt>
<wgt id='scales0.51.0'>  0.209933248E+04 </wgt>
<wgt id='scales1.00.5'>  0.193750598E+04 </wgt>
<wgt id='scales1.02.0'>  0.171517780E+04 </wgt>
<wgt id='scales2.01.0'>  0.171045418E+04 </wgt>
<wgt id='scales2.02.0'>  0.161095483E+04 </wgt>
</rwgt>
<scales uborns=' 0.586755781E+03'> </scales>
</event>
<event>
      5  10001  1.90513E+03  2.19590E+02  7.29735E-03  1.10190E-01
      21    -1     0     0   512   513  0.000000000E+00  0.000000000E+00  4.244008555E+02  4.244008555E+02  0.000000000E+00  0.00000E+00  9.000E+00
       2    -1     0     0   514     0  0.000000000E+00  0.000000000E+00 -9.862763129E+02  9.862763129E+02  0.000000000E+00  0.00000E+00  9.000E+00
       2     1     1     2   512     0  3.777326380E+02  2.641260230E+02 -2.874408365E+02  5.432004569E+02  8.529922400E-06  0.00000E+00  9.000E+00
      21     1     1     2   514   513 -4.892665945E+02 -2.430820235E+02  2.536257782E+01  5.469130927E+02  1.041973752E-05  0.00000E+00  9.000E+00
      22     1     1     2     0     0  1.115339565E+02 -2.104399951E+01 -2.997971988E+02  3.205636189E+02  3.814697266E-06  0.00000E+00  9.000E+00
#rwgt            1         187   7.8893732941215100E-003        6024     5831717           0
<rwgt>
<wgt id='central'>  0.190512664E+04 </wgt>
<wgt id='sudakovwgt'>  0.661565466E-01 </wgt>
<wgt id='scales0.50.5'>  0.244641233E+04 </wgt>
<wgt id='scales0.51.0'>  0.225614934E+04 </wgt>
<wgt id='scales1.00.5'>  0.206579124E+04 </wgt>
<wgt id='scales1.02.0'>  0.176421287E+04 </wgt>
<wgt id='scales2.01.0'>  0.163087695E+04 </wgt>
<wgt id='scales2.02.0'>  0.151024555E+04 </wgt>
</rwgt>
<scales uborns=' 0.582051091E+03'> </scales>
</event>
<event>
      5  10001  1.33625E+03  5.38545E+02  7.29735E-03  9.79442E-02
       2    -1     0     0   512     0  0.000000000E+00  0.000000000E+00  1.775978933E+03  1.775978933E+03  0.000000000E+00  0.00000E+00  9.000E+00
       3    -1     0     0   511     0  0.000000000E+00  0.000000000E+00 -4.559809356E+02  4.559809356E+02  0.000000000E+00  0.00000E+00  9.000E+00
       2     1     1     2   511     0 -3.677917874E+02 -4.910464597E+02  1.459400415E+03  1.583113071E+03  2.157918644E-05  0.00000E+00  9.000E+00
       3     1     1     2   512     0  2.405453536E+01  6.578413301E+01  3.028523353E+01  7.631099657E+01  1.617033478E-06  0.00000E+00  9.000E+00
      22     1     1     2     0     0  3.437372520E+02  4.252623267E+02 -1.696876508E+02  5.725358013E+02  1.662787988E-05  0.00000E+00  9.000E+00
#rwgt            1         102   3.2721394564657745E-004        6024     5832314           0
<rwgt>
<wgt id='central'>  0.133625465E+04 </wgt>
<wgt id='sudakovwgt'>  0.305038895E-02 </wgt>
<wgt id='scales0.50.5'>  0.168062731E+04 </wgt>
<wgt id='scales0.51.0'>  0.158041303E+04 </wgt>
<wgt id='scales1.00.5'>  0.142098185E+04 </wgt>
<wgt id='scales1.02.0'>  0.125866776E+04 </wgt>
<wgt id='scales2.01.0'>  0.114513319E+04 </wgt>
<wgt id='scales2.02.0'>  0.107864713E+04 </wgt>
</rwgt>
<scales uborns=' 0.618317214E+03'> </scales>
</event>
<event>
      5  10001  1.35453E+03  1.35932E+01  7.29735E-03  1.81510E-01
       2    -1     0     0   511     0  0.000000000E+00  0.000000000E+00  9.978389909E+02  9.978389909E+02  0.000000000E+00  0.00000E+00  9.000E+00
      21    -1     0     0   513   514  0.000000000E+00  0.000000000E+00 -7.720799180E+02  7.720799180E+02  0.000000000E+00  0.00000E+00  9.000E+00
       2     1     1     2   513     0 -7.797898088E+01 -5.800229768E+02  7.130309321E+02  9.224535138E+02  1.321449896E-05  0.00000E+00  9.000E+00
      21     1     1     2   511   514  7.007130163E+01  6.121215595E+02 -5.160117322E+02  8.036609351E+02  1.868812365E-05  0.00000E+00  9.000E+00
      22     1     1     2     0     0  7.907679250E+00 -3.209858271E+01  2.873987310E+01  4.380445992E+01  1.066240300E-06  0.00000E+00  9.000E+00
#rwgt            1         182   5.3726127816418907E-003        6024     5839457           0
<rwgt>
<wgt id='central'>  0.135453344E+04 </wgt>
<wgt id='sudakovwgt'>  0.227244048E+00 </wgt>
<wgt id='scales0.50.5'>  0.177566096E+04 </wgt>
<wgt id='scales0.51.0'>  0.160211189E+04 </wgt>
<wgt id='scales1.00.5'>  0.150125972E+04 </wgt>
<wgt id='scales1.02.0'>  0.122996867E+04 </wgt>
<wgt id='scales2.01.0'>  0.116075067E+04 </wgt>
<wgt id='scales2.02.0'>  0.105400911E+04 </wgt>
</rwgt>
<scales uborns=' 0.616885379E+03'> </scales>
</event>
<event>
      5  10001  4.12862E+01  1.34225E+03  7.29735E-03  8.80241E-02
       4    -1     0     0   513     0  0.000000000E+00  0.000000000E+00  2.347443628E+03  2.347443628E+03  0.000000000E+00  0.00000E+00  9.000E+00
       2    -1     0     0   512     0  0.000000000E+00  0.000000000E+00 -5.484692851E+02  5.484692851E+02  0.000000000E+00  0.00000E+00  9.000E+00
       4     1     1     2   512     0  3.250870965E+01  7.692610457E+02  5.726353761E+02  9.595471049E+02  1.868812365E-05  0.00000E+00  9.000E+00
       2     1     1     2   513     0 -1.028648912E+02 -3.428068580E+02 -2.245160626E+02  4.224987457E+02  1.175768662E-05  0.00000E+00  9.000E+00
      22     1     1     2     0     0  7.035618152E+01 -4.264541877E+02  1.450855029E+03  1.513867062E+03  3.051757812E-05  0.00000E+00  9.000E+00
#rwgt            1          99   2.6080993751772174E-005        6024     5843868           0
<rwgt>
<wgt id='central'>  0.412862221E+02 </wgt>
<wgt id='sudakovwgt'>  0.527034489E-03 </wgt>
<wgt id='scales0.50.5'>  0.513220421E+02 </wgt>
<wgt id='scales0.51.0'>  0.482520902E+02 </wgt>
<wgt id='scales1.00.5'>  0.439129598E+02 </wgt>
<wgt id='scales1.02.0'>  0.388933190E+02 </wgt>
<wgt id='scales2.01.0'>  0.357402323E+02 </wgt>
<wgt id='scales2.02.0'>  0.336687866E+02 </wgt>
</rwgt>
<scales uborns=' 0.113382515E+04'> </scales>
</event>
<event>
      5  10001  1.96995E+02  4.64677E+01  7.29735E-03  1.40915E-01
       4    -1     0     0   512     0  0.000000000E+00  0.000000000E+00  1.425591237E+03  1.425591237E+03  0.000000000E+00  0.00000E+00  9.000E+00
       1    -1     0     0   511     0  0.000000000E+00  0.000000000E+00 -2.389463720E+03  2.389463720E+03  0.000000000E+00  0.00000E+00  9.000E+00
       4     1     1     2   511     0 -1.434893343E+02 -8.331106427E+02  9.242901684E+02  1.252587261E+03  1.868812365E-05  0.00000E+00  9.000E+00
       1     1     1     2   512     0  1.843137843E+02  8.553055012E+02 -2.137080743E+03  2.309249482E+03  4.315837288E-05  0.00000E+00  9.000E+00
      22     1     1     2     0     0 -4.082444997E+01 -2.219485848E+01  2.489180911E+02  2.532182132E+02  6.031565972E-06  0.00000E+00  9.000E+00
#rwgt            1          94   4.6315846744990956E-005        6024     5844293           0
<rwgt>
<wgt id='central'>  0.196995121E+03 </wgt>
<wgt id='sudakovwgt'>  0.474091904E-01 </wgt>
<wgt id='scales0.50.5'>  0.251833541E+03 </wgt>
<wgt id='scales0.51.0'>  0.231434592E+03 </wgt>
<wgt id='scales1.00.5'>  0.214358398E+03 </wgt>
<wgt id='scales1.02.0'>  0.181272073E+03 </wgt>
<wgt id='scales2.01.0'>  0.169778788E+03 </wgt>
<wgt id='scales2.02.0'>  0.156228092E+03 </wgt>
</rwgt>
<scales uborns=' 0.859937986E+03'> </scales>
</event>
<event>
      5  10001  1.06816E+07  7.27601E+01  7.29735E-03  1.30376E-01
       2    -1     0     0   512     0  0.000000000E+00  0.000000000E+00  5.872228217E+02  5.872228217E+02  0.000000000E+00  0.00000E+00  9.000E+00
      21    -1     0     0   514   512  0.000000000E+00  0.000000000E+00 -2.548818321E+02  2.548818321E+02  0.000000000E+00  0.00000E+00  9.000E+00
       2     1     1     2   513     0 -1.273485109E+02 -9.181643783E-01  2.854415717E+02  3.125625971E+02  6.607249480E-06  0.00000E+00  9.000E+00
      21     1     1     2   514   513  1.362514699E+02  7.313149232E+01 -2.109870381E+02  2.615878599E+02  2.697398305E-06  0.00000E+00  9.000E+00
      22     1     1     2     0     0 -8.902958998E+00 -7.221332794E+01  2.578864560E+02  2.679541968E+02  0.000000000E+00  0.00000E+00  9.000E+00
#rwgt            1         182   2.9796586220577335E-003        6024     5845085           0
<rwgt>
<wgt id='central'>  0.106816449E+08 </wgt>
<wgt id='sudakovwgt'>  0.228163628E-01 </wgt>
<wgt id='scales0.50.5'>  0.135140005E+08 </wgt>
<wgt id='scales0.51.0'>  0.131459139E+08 </wgt>
<wgt id='scales1.00.5'>  0.109806856E+08 </wgt>
<wgt id='scales1.02.0'>  0.103542237E+08 </wgt>
<wgt id='scales2.01.0'>  0.885851032E+07 </wgt>
<wgt id='scales2.02.0'>  0.858700917E+07 </wgt>
</rwgt>
<scales uborns=' 0.136734819E+03'> </scales>
</event>
<event>
      4  10001  7.61780E+01  8.94427E-01  7.29735E-03  7.50593E-01
      -1    -1     0     0     0   511  0.000000000E+00  0.000000000E+00  1.167648798E+03  1.167648798E+03  0.000000000E+00  0.00000E+00  9.000E+00
      -3    -1     0     0     0   512  0.000000000E+00  0.000000000E+00 -1.337875823E+03  1.337875823E+03  0.000000000E+00  0.00000E+00  9.000E+00
      -1     1     1     2     0   512 -1.005324961E+03  1.487649160E+02  6.441427126E+02  1.203216153E+03  1.321449896E-05  0.00000E+00  9.000E+00
      -3     1     1     2     0   511  1.005324961E+03 -1.487649160E+02 -8.143697377E+02  1.302308468E+03  1.525878906E-05  0.00000E+00  9.000E+00
#rwgt            1         126   1.1422001925370767E-005        6024     5845664           0
<rwgt>
<wgt id='central'>  0.761780416E+02 </wgt>
<wgt id='sudakovwgt'>  0.763448707E+01 </wgt>
<wgt id='scales0.50.5'>  0.992564617E+02 </wgt>
<wgt id='scales0.51.0'>  0.892109274E+02 </wgt>
<wgt id='scales1.00.5'>  0.847559707E+02 </wgt>
<wgt id='scales1.02.0'>  0.688468456E+02 </wgt>
<wgt id='scales2.01.0'>  0.658316055E+02 </wgt>
<wgt id='scales2.02.0'>  0.594961587E+02 </wgt>
</rwgt>
<scales uborns=' 0.101627225E+04'> </scales>
</event>
<event>
      5  10001  7.72981E+06  2.12633E+00  7.29735E-03  3.51098E-01
       2    -1     0     0   514     0  0.000000000E+00  0.000000000E+00  1.305601119E+03  1.305601119E+03  0.000000000E+00  0.00000E+00  9.000E+00
      21    -1     0     0   513   512  0.000000000E+00  0.000000000E+00 -1.033282601E+02  1.033282601E+02  0.000000000E+00  0.00000E+00  9.000E+00
       2     1     1     2   513     0 -6.098534773E+01 -5.598022879E+01  7.184799912E+02  7.232333623E+02  7.629394531E-06  0.00000E+00  9.000E+00
      21     1     1     2   514   512  1.077175048E+02  9.604195619E+01 -4.666935427E+01  1.516744765E+02  1.348699152E-06  0.00000E+00  9.000E+00
      22     1     1     2     0     0 -4.673215711E+01 -4.006172740E+01  5.304622220E+02  5.340215403E+02  0.000000000E+00  0.00000E+00  9.000E+00
#rwgt            1         182   1.5583649577158574E-002        6024     5849308           0
<rwgt>
<wgt id='central'>  0.772981475E+07 </wgt>
<wgt id='sudakovwgt'>  0.100234863E+00 </wgt>
<wgt id='scales0.50.5'>  0.985358242E+07 </wgt>
<wgt id='scales0.51.0'>  0.949642953E+07 </wgt>
<wgt id='scales1.00.5'>  0.802052178E+07 </wgt>
<wgt id='scales1.02.0'>  0.742282149E+07 </wgt>
<wgt id='scales2.01.0'>  0.641962357E+07 </wgt>
<wgt id='scales2.02.0'>  0.616466896E+07 </wgt>
</rwgt>
<scales uborns=' 0.144317673E+03'> </scales>
</event>
<event>
      5  10001  1.87625E+03  5.55005E+02  7.29735E-03  9.75811E-02
       2    -1     0     0   511     0  0.000000000E+00  0.000000000E+00  4.114137841E+03  4.114137841E+03  0.000000000E+00  0.00000E+00  9.000E+00
      -2    -1     0     0     0   511  0.000000000E+00  0.000000000E+00 -2.195225789E+02  2.195225789E+02  0.000000000E+00  0.00000E+00  9.000E+00
       2     1     1     2   514     0  4.155764799E+01  5.818668077E+02  3.656136205E+03  3.702381391E+03  0.000000000E+00  0.00000E+00  9.000E+00
      22     1     1     2     0     0 -3.390697033E-01 -2.770726721E-01 -9.016342746E-01  1.002338214E+00  6.409231772E-08  0.00000E+00  9.000E+00
      -2     1     1     2     0   514 -4.121857829E+01 -5.815897350E+02  2.393806920E+02  6.302766906E+02  4.672030912E-06  0.00000E+00  9.000E+00
#rwgt            1          47   1.0291855785357332E-003        6024     5858305           0
<rwgt>
<wgt id='central'>  0.187624879E+04 </wgt>
<wgt id='sudakovwgt'>  0.270103786E-04 </wgt>
<wgt id='scales0.50.5'>  0.250357486E+04 </wgt>
<wgt id='scales0.51.0'>  0.222182398E+04 </wgt>
<wgt id='scales1.00.5'>  0.211417843E+04 </wgt>
<wgt id='scales1.02.0'>  0.167746899E+04 </wgt>
<wgt id='scales2.01.0'>  0.160622992E+04 </wgt>
<wgt id='scales2.02.0'>  0.143605643E+04 </wgt>
</rwgt>
<scales uborns=' 0.583566226E+03'> </scales>
</event>
<event>
      4  10001  2.80612E+01  8.94427E-01  7.29735E-03  7.46187E-01
       1    -1     0     0   513     0  0.000000000E+00  0.000000000E+00  1.416870033E+03  1.416870033E+03  0.000000000E+00  0.00000E+00  9.000E+00
      21    -1     0     0   512   511  0.000000000E+00  0.000000000E+00 -1.496903372E+03  1.496903372E+03  0.000000000E+00  0.00000E+00  9.000E+00
       1     1     1     2   512     0  1.044067382E+03 -6.232105492E+02  7.618152987E+02  1.434862585E+03  1.868812365E-05  0.00000E+00  9.000E+00
      21     1     1     2   513   511 -1.044067382E+03  6.232105492E+02 -8.418486371E+02  1.478910821E+03  1.078959322E-05  0.00000E+00  9.000E+00
#rwgt            1         181   2.0636928482897676E-003        6024     5864520           0
<rwgt>
<wgt id='central'>  0.280611573E+02 </wgt>
<wgt id='sudakovwgt'>  0.393261478E+01 </wgt>
<wgt id='scales0.50.5'>  0.379942052E+02 </wgt>
<wgt id='scales0.51.0'>  0.327543578E+02 </wgt>
<wgt id='scales1.00.5'>  0.325502640E+02 </wgt>
<wgt id='scales1.02.0'>  0.244399598E+02 </wgt>
<wgt id='scales2.01.0'>  0.243179415E+02 </wgt>
<wgt id='scales2.02.0'>  0.211797611E+02 </wgt>
</rwgt>
<scales uborns=' 0.121592273E+04'> </scales>
</event>
<event>
      5  10001  9.78639E+01  7.08343E+01  7.29735E-03  1.30960E-01
       1    -1     0     0   511     0  0.000000000E+00  0.000000000E+00  2.000727850E+03  2.000727850E+03  0.000000000E+00  0.00000E+00  9.000E+00
       2    -1     0     0   514     0  0.000000000E+00  0.000000000E+00 -7.819533391E+02  7.819533391E+02  0.000000000E+00  0.00000E+00  9.000E+00
       1     1     1     2   514     0 -5.460901755E+02  8.428586054E+02  1.341690725E+03  1.675935294E+03  1.525878906E-05  0.00000E+00  9.000E+00
       2     1     1     2   511     0  5.375334602E+02 -7.725429960E+02  2.635588727E+01  9.415198003E+02  2.097270548E-05  0.00000E+00  9.000E+00
      22     1     1     2     0     0  8.556715356E+00 -7.031560943E+01 -1.492721010E+02  1.652260949E+02  2.697398305E-06  0.00000E+00  9.000E+00
#rwgt            1          96   1.0541832940757240E-003        6024     5865704           0
<rwgt>
<wgt id='central'>  0.978639401E+02 </wgt>
<wgt id='sudakovwgt'>  0.360258982E-01 </wgt>
<wgt id='scales0.50.5'>  0.125153576E+03 </wgt>
<wgt id='scales0.51.0'>  0.114702521E+03 </wgt>
<wgt id='scales1.00.5'>  0.106780714E+03 </wgt>
<wgt id='scales1.02.0'>  0.901567978E+02 </wgt>
<wgt id='scales2.01.0'>  0.845122021E+02 </wgt>
<wgt id='scales2.02.0'>  0.778565898E+02 </wgt>
</rwgt>
<scales uborns=' 0.972205119E+03'> </scales>
</event>
<event>
      5  10001  8.64377E+01  2.50561E+00  7.29735E-03  3.22811E-01
       1    -1     0     0   513     0  0.000000000E+00  0.000000000E+00  1.248832962E+03  1.248832962E+03  0.000000000E+00  0.00000E+00  9.000E+00
       2    -1     0     0   512     0  0.000000000E+00  0.000000000E+00 -9.915518196E+02  9.915518196E+02  0.000000000E+00  0.00000E+00  9.000E+00
       1     1     1     2   512     0 -9.495520452E+02  2.929512465E+02  6.326355415E+02  1.178005623E+03  1.078959322E-05  0.00000E+00  9.000E+00
       2     1     1     2   513     0  9.290832349E+02 -2.850631297E+02 -3.691692673E+02  1.039587704E+03  7.629394531E-06  0.00000E+00  9.000E+00
      22     1     1     2     0     0  2.046881029E+01 -7.888116786E+00 -6.185131657E+00  2.279145530E+01  3.576278687E-07  0.00000E+00  9.000E+00
#rwgt            1          96   1.5952305768792939E-003        6024     5873313           0
<rwgt>
<wgt id='central'>  0.864376792E+02 </wgt>
<wgt id='sudakovwgt'>  0.177043031E+01 </wgt>
<wgt id='scales0.50.5'>  0.109273586E+03 </wgt>
<wgt id='scales0.51.0'>  0.101268412E+03 </wgt>
<wgt id='scales1.00.5'>  0.932705204E+02 </wgt>
<wgt id='scales1.02.0'>  0.804554209E+02 </wgt>
<wgt id='scales2.01.0'>  0.746711646E+02 </wgt>
<wgt id='scales2.02.0'>  0.695032374E+02 </wgt>
</rwgt>
<scales uborns=' 0.993772999E+03'> </scales>
</event>
<event>
      5  10001  6.06754E+04  4.55688E+02  7.29735E-03  1.00011E-01
      21    -1     0     0   512   514  0.000000000E+00  0.000000000E+00  2.119964807E+02  2.119964807E+02  0.000000000E+00  0.00000E+00  9.000E+00
       2    -1     0     0   514     0  0.000000000E+00  0.000000000E+00 -5.389869270E+02  5.389869270E+02  0.000000000E+00  0.00000E+00  9.000E+00
      22     1     1     2     0     0 -3.392196974E+01  5.819301059E+00 -9.375198781E+01  9.986991296E+01  0.000000000E+00  0.00000E+00  9.000E+00
      21     1     1     2   512   511 -1.255562877E+02 -2.646348128E+02 -5.291250668E+01  2.976502963E+02  4.720447033E-06  0.00000E+00  9.000E+00
       2     1     1     2   511     0  1.594782574E+02  2.588155118E+02 -1.803259518E+02  3.534631984E+02  6.325959759E-06  0.00000E+00  9.000E+00
#rwgt            1         187   4.9597478306729042E-003        6024     5966533           0
<rwgt>
<wgt id='central'>  0.606754307E+05 </wgt>
<wgt id='sudakovwgt'>  0.699682735E-01 </wgt>
<wgt id='scales0.50.5'>  0.756199518E+05 </wgt>
<wgt id='scales0.51.0'>  0.728390532E+05 </wgt>
<wgt id='scales1.00.5'>  0.629919064E+05 </wgt>
<wgt id='scales1.02.0'>  0.583776093E+05 </wgt>
<wgt id='scales2.01.0'>  0.513540486E+05 </wgt>
<wgt id='scales2.02.0'>  0.494092596E+05 </wgt>
</rwgt>
<scales uborns=' 0.324579827E+03'> </scales>
</event>
<event>
      5  10001  7.84383E+05  2.85985E+01  7.29735E-03  1.54497E-01
       1    -1     0     0   512     0  0.000000000E+00  0.000000000E+00  8.333080882E+01  8.333080882E+01  0.000000000E+00  0.00000E+00  9.000E+00
      -2    -1     0     0     0   512  0.000000000E+00  0.000000000E+00 -1.347083623E+03  1.347083623E+03  0.000000000E+00  0.00000E+00  9.000E+00
       1     1     1     2   513     0 -1.469545676E+02  1.323882164E+02 -1.307059325E+02  2.370787328E+02  6.031565972E-06  0.00000E+00  9.000E+00
      -2     1     1     2     0   513  1.630448091E+02 -1.560309197E+02 -1.141436579E+03  1.163532003E+03  2.157918644E-05  0.00000E+00  9.000E+00
      22     1     1     2     0     0 -1.609024152E+01  2.364270334E+01  8.389697202E+00  2.980369629E+01  9.536743164E-07  0.00000E+00  9.000E+00
#rwgt            1         141   2.6188440875862040E-005        6024     5966839           0
<rwgt>
<wgt id='central'>  0.784382850E+06 </wgt>
<wgt id='sudakovwgt'>  0.322230298E-01 </wgt>
<wgt id='scales0.50.5'>  0.978053224E+06 </wgt>
<wgt id='scales0.51.0'>  0.952529627E+06 </wgt>
<wgt id='scales1.00.5'>  0.805401008E+06 </wgt>
<wgt id='scales1.02.0'>  0.762018663E+06 </wgt>
<wgt id='scales2.01.0'>  0.657614371E+06 </wgt>
<wgt id='scales2.02.0'>  0.638864463E+06 </wgt>
</rwgt>
<scales uborns=' 0.211470574E+03'> </scales>
</event>
<event>
      5  10001  2.74757E+03  4.52607E+02  7.29735E-03  1.00096E-01
      21    -1     0     0   511   514  0.000000000E+00  0.000000000E+00  3.053516016E+02  3.053516016E+02  0.000000000E+00  0.00000E+00  9.000E+00
       2    -1     0     0   513     0  0.000000000E+00  0.000000000E+00 -1.498936855E+03  1.498936855E+03  0.000000000E+00  0.00000E+00  9.000E+00
      22     1     1     2     0     0 -1.653801040E+02 -6.040109878E+01 -2.866791854E+02  3.364280412E+02  0.000000000E+00  0.00000E+00  9.000E+00
      21     1     1     2   513   514  2.282462553E+02  4.710489295E+02 -6.296016854E+01  5.272071982E+02  1.530342725E-05  0.00000E+00  9.000E+00
       2     1     1     2   511     0 -6.286615133E+01 -4.106478307E+02 -8.439458995E+02  9.406532172E+02  1.525878906E-05  0.00000E+00  9.000E+00
#rwgt            1         187   1.2555996224895156E-002        6024     5967476           0
<rwgt>
<wgt id='central'>  0.274757395E+04 </wgt>
<wgt id='sudakovwgt'>  0.595263760E-03 </wgt>
<wgt id='scales0.50.5'>  0.355159124E+04 </wgt>
<wgt id='scales0.51.0'>  0.325820452E+04 </wgt>
<wgt id='scales1.00.5'>  0.299497637E+04 </wgt>
<wgt id='scales1.02.0'>  0.253126050E+04 </wgt>
<wgt id='scales2.01.0'>  0.234937550E+04 </wgt>
<wgt id='scales2.02.0'>  0.216441488E+04 </wgt>
</rwgt>
<scales uborns=' 0.546926781E+03'> </scales>
</event>
<event>
      5  10001  4.56319E+01  1.76410E+03  7.29735E-03  8.54399E-02
       2    -1     0     0   515     0  0.000000000E+00  0.000000000E+00  1.709393398E+03  1.709393398E+03  0.000000000E+00  0.00000E+00  9.000E+00
      21    -1     0     0   511   512  0.000000000E+00  0.000000000E+00 -2.540924467E+03  2.540924467E+03  0.000000000E+00  0.00000E+00  9.000E+00
       2     1     1     2   511     0  9.322854398E+02  4.495119286E+02  2.836464290E+02  1.073160012E+03  1.477425898E-05  0.00000E+00  9.000E+00
      21     1     1     2   515   512 -2.484626723E+02 -8.993146563E+02 -1.853359618E+03  2.074956005E+03  3.051757812E-05  0.00000E+00  9.000E+00
      22     1     1     2     0     0 -6.838227675E+02  4.498027277E+02  7.381821197E+02  1.102201848E+03  1.525878906E-05  0.00000E+00  9.000E+00
#rwgt            1         182   3.9646246005484893E-003        6024     5967743           0
<rwgt>
<wgt id='central'>  0.456319120E+02 </wgt>
<wgt id='sudakovwgt'>  0.663218335E-01 </wgt>
<wgt id='scales0.50.5'>  0.647520030E+02 </wgt>
<wgt id='scales0.51.0'>  0.533485261E+02 </wgt>
<wgt id='scales1.00.5'>  0.553859149E+02 </wgt>
<wgt id='scales1.02.0'>  0.381713266E+02 </wgt>
<wgt id='scales2.01.0'>  0.394911097E+02 </wgt>
<wgt id='scales2.02.0'>  0.330345229E+02 </wgt>
</rwgt>
<scales uborns=' 0.111360325E+04'> </scales>
</event>
<event>
      5  10001  1.44082E+01  1.24323E+02  7.29735E-03  1.19719E-01
       1    -1     0     0   513     0  0.000000000E+00  0.000000000E+00  2.325619688E+03  2.325619688E+03  0.000000000E+00  0.00000E+00  9.000E+00
      -3    -1     0     0     0   513  0.000000000E+00  0.000000000E+00 -8.255606876E+02  8.255606876E+02  0.000000000E+00  0.00000E+00  9.000E+00
       1     1     1     2   514     0 -6.613562917E+02 -5.967932090E+02  2.923985639E+02  9.375773030E+02  0.000000000E+00  0.00000E+00  9.000E+00
      -3     1     1     2     0   514  1.068583613E+03  8.565313518E+02  9.438991543E+02  1.663268622E+03  1.078959322E-05  0.00000E+00  9.000E+00
      22     1     1     2     0     0 -4.072273212E+02 -2.597381427E+02  2.637612824E+02  5.503344510E+02  6.607249480E-06  0.00000E+00  9.000E+00
#rwgt            1         142   3.2806857410318536E-005        6024     5968440           0
<rwgt>
<wgt id='central'>  0.144081502E+02 </wgt>
<wgt id='sudakovwgt'>  0.102974339E-02 </wgt>
<wgt id='scales0.50.5'>  0.186359208E+02 </wgt>
<wgt id='scales0.51.0'>  0.167815284E+02 </wgt>
<wgt id='scales1.00.5'>  0.160003349E+02 </wgt>
<wgt id='scales1.02.0'>  0.130440037E+02 </wgt>
<wgt id='scales2.01.0'>  0.125093597E+02 </wgt>
<wgt id='scales2.02.0'>  0.113249493E+02 </wgt>
</rwgt>
<scales uborns=' 0.137469527E+04'> </scales>
</event>
<event>
      5  10001  9.04932E+03  5.81948E+00  7.29735E-03  2.27552E-01
       2    -1     0     0   513     0  0.000000000E+00  0.000000000E+00  1.772841967E+03  1.772841967E+03  0.000000000E+00  0.00000E+00  9.000E+00
      21    -1     0     0   511   512  0.000000000E+00  0.000000000E+00 -2.022020984E+02  2.022020984E+02  0.000000000E+00  0.00000E+00  9.000E+00
       2     1     1     2   511     0  1.887492400E+02  4.021499376E+02  1.417419636E+03  1.485405424E+03  2.157918644E-05  0.00000E+00  9.000E+00
      21     1     1     2   513   512 -1.926694306E+02 -4.064509137E+02  1.336774854E+02  4.692478288E+02  1.027138673E-05  0.00000E+00  9.000E+00
      22     1     1     2     0     0  3.920190616E+00  4.300976074E+00  1.954274761E+01  2.039081347E+01  2.384185791E-07  0.00000E+00  9.000E+00
#rwgt            1         182   1.2519544739893928E-002        6024     5968934           0
<rwgt>
<wgt id='central'>  0.904932058E+04 </wgt>
<wgt id='sudakovwgt'>  0.514959573E-01 </wgt>
<wgt id='scales0.50.5'>  0.116791190E+05 </wgt>
<wgt id='scales0.51.0'>  0.107798737E+05 </wgt>
<wgt id='scales1.00.5'>  0.980420441E+04 </wgt>
<wgt id='scales1.02.0'>  0.837775512E+04 </wgt>
<wgt id='scales2.01.0'>  0.770850723E+04 </wgt>
<wgt id='scales2.02.0'>  0.713644627E+04 </wgt>
</rwgt>
<scales uborns=' 0.447017354E+03'> </scales>
</event>
<event>
      5  10001  6.38327E+00  4.75704E+01  7.29735E-03  1.40321E-01
       2    -1     0     0   511     0  0.000000000E+00  0.000000000E+00  3.472295838E+03  3.472295838E+03  0.000000000E+00  0.00000E+00  9.000E+00
      21    -1     0     0   514   515  0.000000000E+00  0.000000000E+00 -9.861013120E+02  9.861013120E+02  0.000000000E+00  0.00000E+00  9.000E+00
       2     1     1     2   514     0 -7.979241039E+02  3.808176012E+02  1.254984680E+03  1.535151936E+03  1.525878906E-05  0.00000E+00  9.000E+00
      21     1     1     2   511   515  1.455161987E+03 -6.746943449E+02  1.321862443E+02  1.609404260E+03  1.695288547E-05  0.00000E+00  9.000E+00
      22     1     1     2     0     0 -6.572378831E+02  2.938767437E+02  1.099023602E+03  1.313840954E+03  1.525878906E-05  0.00000E+00  9.000E+00
#rwgt            1         182   7.1813571687999525E-003        6024     5974714           0
<rwgt>
<wgt id='central'>  0.638326912E+01 </wgt>
<wgt id='sudakovwgt'>  0.154505676E+00 </wgt>
<wgt id='scales0.50.5'>  0.875890813E+01 </wgt>
<wgt id='scales0.51.0'>  0.741512329E+01 </wgt>
<wgt id='scales1.00.5'>  0.754006014E+01 </wgt>
<wgt id='scales1.02.0'>  0.546489377E+01 </wgt>
<wgt id='scales2.01.0'>  0.555458507E+01 </wgt>
<wgt id='scales2.02.0'>  0.475543371E+01 </wgt>
</rwgt>
<scales uborns=' 0.160428247E+04'> </scales>
</event>
<event>
      4  10001  3.60610E+03  8.94427E-01  7.29735E-03  7.46704E-01
      21    -1     0     0   513   514  0.000000000E+00  0.000000000E+00  2.578267965E+02  2.578267965E+02  0.000000000E+00  0.00000E+00  9.000E+00
       1    -1     0     0   514     0  0.000000000E+00  0.000000000E+00 -1.061728721E+03  1.061728721E+03  0.000000000E+00  0.00000E+00  9.000E+00
       1     1     1     2   512     0 -5.076126962E+02  1.228687957E+02 -4.413211774E+02  6.837629501E+02  5.394796609E-06  0.00000E+00  9.000E+00
      21     1     1     2   513   512  5.076126962E+02 -1.228687957E+02 -3.625807467E+02  6.357925669E+02  0.000000000E+00  0.00000E+00  9.000E+00
#rwgt            1         186   3.0188847786361559E-003        6024     5977848           0
<rwgt>
<wgt id='central'>  0.360610400E+04 </wgt>
<wgt id='sudakovwgt'>  0.164577716E+01 </wgt>
<wgt id='scales0.50.5'>  0.462034361E+04 </wgt>
<wgt id='scales0.51.0'>  0.428063422E+04 </wgt>
<wgt id='scales1.00.5'>  0.389227863E+04 </wgt>
<wgt id='scales1.02.0'>  0.335099994E+04 </wgt>
<wgt id='scales2.01.0'>  0.308085577E+04 </wgt>
<wgt id='scales2.02.0'>  0.286291215E+04 </wgt>
</rwgt>
<scales uborns=' 0.522271376E+03'> </scales>
</event>
<event>
      5  10001  1.89407E+03  7.08267E+02  7.29735E-03  9.47375E-02
       1    -1     0     0   511     0  0.000000000E+00  0.000000000E+00  6.061237633E+02  6.061237633E+02  0.000000000E+00  0.00000E+00  9.000E+00
      -1    -1     0     0     0   511  0.000000000E+00  0.000000000E+00 -8.561093467E+02  8.561093467E+02  0.000000000E+00  0.00000E+00  9.000E+00
       1     1     1     2   513     0 -3.061424513E+02  1.340295215E+02 -3.183150787E+02  4.615318000E+02  6.607249480E-06  0.00000E+00  9.000E+00
      22     1     1     2     0     0  2.290151477E+02 -4.560313534E+02  3.042665411E+02  5.941301719E+02  9.344061824E-06  0.00000E+00  9.000E+00
      -1     1     1     2     0   513  7.712730359E+01  3.220018319E+02 -2.359370458E+02  4.065711380E+02  3.814697266E-06  0.00000E+00  9.000E+00
#rwgt            1          41   1.0415464496580581E-005        6024     5979285           0
<rwgt>
<wgt id='central'>  0.189406911E+04 </wgt>
<wgt id='sudakovwgt'>  0.168807524E-02 </wgt>
<wgt id='scales0.50.5'>  0.240845750E+04 </wgt>
<wgt id='scales0.51.0'>  0.224300373E+04 </wgt>
<wgt id='scales1.00.5'>  0.203378489E+04 </wgt>
<wgt id='scales1.02.0'>  0.177048979E+04 </wgt>
<wgt id='scales2.01.0'>  0.162143816E+04 </wgt>
<wgt id='scales2.02.0'>  0.151564604E+04 </wgt>
</rwgt>
<scales uborns=' 0.582628032E+03'> </scales>
</event>
<event>
      5  10001  1.19128E+00  3.08936E+02  7.29735E-03  1.05179E-01
       2    -1     0     0   513     0  0.000000000E+00  0.000000000E+00  3.313163224E+03  3.313163224E+03  0.000000000E+00  0.00000E+00  9.000E+00
      21    -1     0     0   512   511  0.000000000E+00  0.000000000E+00 -1.547390021E+03  1.547390021E+03  0.000000000E+00  0.00000E+00  9.000E+00
      22     1     1     2     0     0 -6.686012470E+01 -1.270211246E+02  4.424682106E+01  1.502079343E+02  2.977847099E-06  0.00000E+00  9.000E+00
      21     1     1     2   513   511  8.857027678E+02  2.081778522E+03  8.048686303E+02  2.401267315E+03  3.051757812E-05  0.00000E+00  9.000E+00
       2     1     1     2   512     0 -8.188426431E+02 -1.954757397E+03  9.166577517E+02  2.309077996E+03  1.525878906E-05  0.00000E+00  9.000E+00
#rwgt            1         182   4.1860214363469428E-003        6024     5982275           0
<rwgt>
<wgt id='central'>  0.119127715E+01 </wgt>
<wgt id='sudakovwgt'>  0.109116916E-02 </wgt>
<wgt id='scales0.50.5'>  0.164155863E+01 </wgt>
<wgt id='scales0.51.0'>  0.137617931E+01 </wgt>
<wgt id='scales1.00.5'>  0.142100375E+01 </wgt>
<wgt id='scales1.02.0'>  0.101066901E+01 </wgt>
<wgt id='scales2.01.0'>  0.104159961E+01 </wgt>
<wgt id='scales2.02.0'>  0.883681794E+00 </wgt>
</rwgt>
<scales uborns=' 0.226307459E+04'> </scales>
</event>
<event>
      5  10001  1.07643E+00  4.27995E+03  7.29735E-03  7.80241E-02
       2    -1     0     0   511     0  0.000000000E+00  0.000000000E+00  2.805850339E+03  2.805850339E+03  0.000000000E+00  0.00000E+00  9.000E+00
       2    -1     0     0   512     0  0.000000000E+00  0.000000000E+00 -1.909030061E+03  1.909030061E+03  0.000000000E+00  0.00000E+00  9.000E+00
       2     1     1     2   512     0 -1.825638624E+02 -3.036826182E+02  6.893923145E+01  3.609782737E+02  3.752196421E-05  0.00000E+00  9.000E+00
       2     1     1     2   511     0  4.329863658E+02 -1.978137125E+02 -1.699601057E+03  1.765007425E+03  4.825252777E-05  0.00000E+00  9.000E+00
      22     1     1     2     0     0 -2.504225034E+02  5.014963306E+02  2.527482103E+03  2.588894703E+03  4.315837288E-05  0.00000E+00  9.000E+00
#rwgt            1          97   4.0048563340494611E-003        6024     5983170           0
<rwgt>
<wgt id='central'>  0.107643425E+01 </wgt>
<wgt id='sudakovwgt'>  0.153937161E-02 </wgt>
<wgt id='scales0.50.5'>  0.140680842E+01 </wgt>
<wgt id='scales0.51.0'>  0.124307103E+01 </wgt>
<wgt id='scales1.00.5'>  0.121821743E+01 </wgt>
<wgt id='scales1.02.0'>  0.958637615E+00 </wgt>
<wgt id='scales2.01.0'>  0.941462857E+00 </wgt>
<wgt id='scales2.02.0'>  0.838439757E+00 </wgt>
</rwgt>
<scales uborns=' 0.231440041E+04'> </scales>
</event>
<event>
      5  10001  6.29791E+02  8.09902E+00  7.29735E-03  2.06974E-01
      21    -1     0     0   513   512  0.000000000E+00  0.000000000E+00  6.533718141E+02  6.533718141E+02  0.000000000E+00  0.00000E+00  9.000E+00
       2    -1     0     0   514     0  0.000000000E+00  0.000000000E+00 -2.603981439E+03  2.603981439E+03  0.000000000E+00  0.00000E+00  9.000E+00
       2     1     1     2   513     0 -5.494316421E+02  3.308049580E+02 -2.165384282E+03  2.258361383E+03  3.051757812E-05  0.00000E+00  9.000E+00
      21     1     1     2   514   512  6.034419404E+02 -3.610898200E+02  3.962928135E+02  8.072025939E+02  7.629394531E-06  0.00000E+00  9.000E+00
      22     1     1     2     0     0 -5.401029831E+01  3.028486198E+01 -1.815181571E+02  1.917892764E+02  0.000000000E+00  0.00000E+00  9.000E+00
#rwgt            1         187   1.4130882311871528E-002        6024     5983286           0
<rwgt>
<wgt id='central'>  0.629790781E+03 </wgt>
<wgt id='sudakovwgt'>  0.453290240E+00 </wgt>
<wgt id='scales0.50.5'>  0.856125590E+03 </wgt>
<wgt id='scales0.51.0'>  0.742872300E+03 </wgt>
<wgt id='scales1.00.5'>  0.725804679E+03 </wgt>
<wgt id='scales1.02.0'>  0.551790209E+03 </wgt>
<wgt id='scales2.01.0'>  0.540938218E+03 </wgt>
<wgt id='scales2.02.0'>  0.473942009E+03 </wgt>
</rwgt>
<scales uborns=' 0.703305327E+03'> </scales>
</event>
<event>
      5  10001  9.02438E+02  5.14489E+00  7.29735E-03  2.36368E-01
      -1    -1     0     0     0   511  0.000000000E+00  0.000000000E+00  5.873826565E+02  5.873826565E+02  0.000000000E+00  0.00000E+00  9.000E+00
      21    -1     0     0   512   513  0.000000000E+00  0.000000000E+00 -9.264171221E+02  9.264171221E+02  0.000000000E+00  0.00000E+00  9.000E+00
      -1     1     1     2     0   513 -2.929896658E+02  5.776369373E+02  1.677180982E+02  6.690566015E+02  8.740569487E-06  0.00000E+00  9.000E+00
      21     1     1     2   512   511  2.993280344E+02 -5.890972104E+02 -5.047209412E+02  8.314902428E+02  1.789251617E-05  0.00000E+00  9.000E+00
      22     1     1     2     0     0 -6.338368540E+00  1.146027311E+01 -2.031622634E+00  1.325293424E+01  1.788139343E-07  0.00000E+00  9.000E+00
#rwgt            1         191   6.4129764313017052E-004        6024     5985542           0
<rwgt>
<wgt id='central'>  0.902437537E+03 </wgt>
<wgt id='sudakovwgt'>  0.340172746E-01 </wgt>
<wgt id='scales0.50.5'>  0.119119165E+04 </wgt>
<wgt id='scales0.51.0'>  0.106583125E+04 </wgt>
<wgt id='scales1.00.5'>  0.100858050E+04 </wgt>
<wgt id='scales1.02.0'>  0.812974342E+03 </wgt>
<wgt id='scales2.01.0'>  0.774286041E+03 </wgt>
<wgt id='scales2.02.0'>  0.697526794E+03 </wgt>
</rwgt>
<scales uborns=' 0.661225935E+03'> </scales>
</event>
<event>
      4  10001  3.11651E+01  8.94427E-01  7.29735E-03  7.52461E-01
      21    -1     0     0   514   515  0.000000000E+00  0.000000000E+00  7.752530709E+02  7.752530709E+02  0.000000000E+00  0.00000E+00  9.000E+00
       3    -1     0     0   511     0  0.000000000E+00  0.000000000E+00 -1.969836413E+03  1.969836413E+03  0.000000000E+00  0.00000E+00  9.000E+00
       3     1     1     2   514     0  3.986778051E+02  1.124364463E+03 -2.391380301E+02  1.216686663E+03  1.789251617E-05  0.00000E+00  9.000E+00
      21     1     1     2   511   515 -3.986778051E+02 -1.124364463E+03 -9.554453123E+02  1.528402821E+03  1.078959322E-05  0.00000E+00  9.000E+00
#rwgt            1         188   6.6956461898739147E-005        6024     5985993           0
<rwgt>
<wgt id='central'>  0.311650780E+02 </wgt>
<wgt id='sudakovwgt'>  0.232316339E+01 </wgt>
<wgt id='scales0.50.5'>  0.405672946E+02 </wgt>
<wgt id='scales0.51.0'>  0.363898334E+02 </wgt>
<wgt id='scales1.00.5'>  0.347427750E+02 </wgt>
<wgt id='scales1.02.0'>  0.281435155E+02 </wgt>
<wgt id='scales2.01.0'>  0.269998967E+02 </wgt>
<wgt id='scales2.02.0'>  0.243821458E+02 </wgt>
</rwgt>
<scales uborns=' 0.119295408E+04'> </scales>
</event>
<event>
      4  10001  3.16630E+02  8.94427E-01  7.29735E-03  7.48169E-01
      -1    -1     0     0     0   512  0.000000000E+00  0.000000000E+00  3.701981966E+03  3.701981966E+03  0.000000000E+00  0.00000E+00  9.000E+00
      21    -1     0     0   513   514  0.000000000E+00  0.000000000E+00 -2.161167051E+02  2.161167051E+02  0.000000000E+00  0.00000E+00  9.000E+00
      -1     1     1     2     0   514  7.450111219E+02 -2.683613178E+02  2.653911033E+03  2.769531213E+03  3.051757812E-05  0.00000E+00  9.000E+00
      21     1     1     2   513   512 -7.450111219E+02  2.683613178E+02  8.319542282E+02  1.148567458E+03  1.868812365E-05  0.00000E+00  9.000E+00
#rwgt            1         191   1.9354833414820520E-003        6024     5988651           0
<rwgt>
<wgt id='central'>  0.316629740E+03 </wgt>
<wgt id='sudakovwgt'>  0.191363833E+01 </wgt>
<wgt id='scales0.50.5'>  0.409049016E+03 </wgt>
<wgt id='scales0.51.0'>  0.372588983E+03 </wgt>
<wgt id='scales1.00.5'>  0.347614116E+03 </wgt>
<wgt id='scales1.02.0'>  0.289356318E+03 </wgt>
<wgt id='scales2.01.0'>  0.272510213E+03 </wgt>
<wgt id='scales2.02.0'>  0.249036894E+03 </wgt>
</rwgt>
<scales uborns=' 0.791870803E+03'> </scales>
</event>
<event>
      5  10001  5.42748E+00  4.95574E+01  7.29735E-03  1.39296E-01
       2    -1     0     0   514     0  0.000000000E+00  0.000000000E+00  3.472150115E+03  3.472150115E+03  0.000000000E+00  0.00000E+00  9.000E+00
       5    -1     0     0   511     0  0.000000000E+00  0.000000000E+00 -8.768767168E+02  8.768767168E+02  0.000000000E+00  0.00000E+00  9.000E+00
       2     1     1     2   511     0  1.185487809E+03 -9.959817788E+02  1.833619789E+03  2.399900535E+03  2.157918644E-05  0.00000E+00  9.000E+00
       5     1     1     2   514     0 -1.234123641E+03  1.097027145E+03  6.095155028E+02  1.760124673E+03  2.954851796E-05  0.00000E+00  9.000E+00
      22     1     1     2     0     0  4.863583215E+01 -1.010453659E+02  1.521381065E+02  1.890016233E+02  2.697398305E-06  0.00000E+00  9.000E+00
#rwgt            1         112   8.9305301983686294E-005        6024     5989735           0
<rwgt>
<wgt id='central'>  0.542747790E+01 </wgt>
<wgt id='sudakovwgt'>  0.129213965E-02 </wgt>
<wgt id='scales0.50.5'>  0.681416149E+01 </wgt>
<wgt id='scales0.51.0'>  0.630150568E+01 </wgt>
<wgt id='scales1.00.5'>  0.586902990E+01 </wgt>
<wgt id='scales1.02.0'>  0.501620546E+01 </wgt>
<wgt id='scales2.01.0'>  0.472501674E+01 </wgt>
<wgt id='scales2.02.0'>  0.436697230E+01 </wgt>
</rwgt>
<scales uborns=' 0.165565942E+04'> </scales>
</event>
<event>
      5  10001  5.68386E+04  2.70272E+00  7.29735E-03  3.11333E-01
      21    -1     0     0   511   513  0.000000000E+00  0.000000000E+00  1.127605291E+02  1.127605291E+02  0.000000000E+00  0.00000E+00  9.000E+00
       4    -1     0     0   513     0  0.000000000E+00  0.000000000E+00 -1.092016368E+03  1.092016368E+03  0.000000000E+00  0.00000E+00  9.000E+00
       4     1     1     2   512     0  1.517179454E+02  2.362990425E+02 -6.037459072E+02  6.658563605E+02  1.321449896E-05  0.00000E+00  9.000E+00
      21     1     1     2   511   512 -1.793653732E+02 -2.747649896E+02 -2.762296743E+02  4.289179054E+02  3.814697266E-06  0.00000E+00  9.000E+00
      22     1     1     2     0     0  2.764742779E+01  3.846594710E+01 -9.928025775E+01  1.100026315E+02  1.907348633E-06  0.00000E+00  9.000E+00
#rwgt            1         189   2.3744754283938190E-004        6024     5991742           0
<rwgt>
<wgt id='central'>  0.568385758E+05 </wgt>
<wgt id='sudakovwgt'>  0.140080968E+00 </wgt>
<wgt id='scales0.50.5'>  0.674193644E+05 </wgt>
<wgt id='scales0.51.0'>  0.682142545E+05 </wgt>
<wgt id='scales1.00.5'>  0.561762687E+05 </wgt>
<wgt id='scales1.02.0'>  0.567923681E+05 </wgt>
<wgt id='scales2.01.0'>  0.481176955E+05 </wgt>
<wgt id='scales2.02.0'>  0.480785571E+05 </wgt>
</rwgt>
<scales uborns=' 0.328156704E+03'> </scales>
</event>
<event>
      5  10001  5.31204E+02  5.15962E+01  7.29735E-03  1.38301E-01
       2    -1     0     0   511     0  0.000000000E+00  0.000000000E+00  1.174403969E+03  1.174403969E+03  0.000000000E+00  0.00000E+00  9.000E+00
      -4    -1     0     0     0   511  0.000000000E+00  0.000000000E+00 -9.610442900E+02  9.610442900E+02  0.000000000E+00  0.00000E+00  9.000E+00
       2     1     1     2   513     0 -5.670428179E+02  4.328837287E+02  8.343714531E+02  1.097771197E+03  2.157918644E-05  0.00000E+00  9.000E+00
      -4     1     1     2     0   513  5.550843001E+02 -4.830750181E+02 -4.581148168E+02  8.668040371E+02  2.750817318E-05  0.00000E+00  9.000E+00
      22     1     1     2     0     0  1.195851772E+01  5.019128932E+01 -1.628969576E+02  1.708730244E+02  1.907348633E-06  0.00000E+00  9.000E+00
#rwgt            1         147   1.0190929416695087E-004        6024     6012302           0
<rwgt>
<wgt id='central'>  0.531203875E+03 </wgt>
<wgt id='sudakovwgt'>  0.398152327E-01 </wgt>
<wgt id='scales0.50.5'>  0.642565930E+03 </wgt>
<wgt id='scales0.51.0'>  0.626209266E+03 </wgt>
<wgt id='scales1.00.5'>  0.545079114E+03 </wgt>
<wgt id='scales1.02.0'>  0.515603850E+03 </wgt>
<wgt id='scales2.01.0'>  0.456490662E+03 </wgt>
<wgt id='scales2.02.0'>  0.443084658E+03 </wgt>
</rwgt>
<scales uborns=' 0.724200362E+03'> </scales>
</event>
<event>
      5  10001  1.08193E+03  9.34010E+01  7.29735E-03  1.25176E-01
       2    -1     0     0   511     0  0.000000000E+00  0.000000000E+00  6.334873766E+02  6.334873766E+02  0.000000000E+00  0.00000E+00  9.000E+00
       2    -1     0     0   512     0  0.000000000E+00  0.000000000E+00 -8.373208592E+02  8.373208592E+02  0.000000000E+00  0.00000E+00  9.000E+00
       2     1     1     2   512     0  6.275459534E+02  1.169298391E+02  2.461449869E+02  6.841592398E+02  1.206313194E-05  0.00000E+00  9.000E+00
       2     1     1     2   511     0 -3.233232015E+02 -1.248846089E+01 -2.291581871E+02  3.964937943E+02  8.092194914E-06  0.00000E+00  9.000E+00
      22     1     1     2     0     0 -3.042227519E+02 -1.044413782E+02 -2.208202824E+02  3.901552016E+02  6.607249480E-06  0.00000E+00  9.000E+00
#rwgt            1          97   7.3946768411621577E-004        6024     6013947           0
<rwgt>
<wgt id='central'>  0.108192780E+04 </wgt>
<wgt id='sudakovwgt'>  0.784642748E-03 </wgt>
<wgt id='scales0.50.5'>  0.133206138E+04 </wgt>
<wgt id='scales0.51.0'>  0.127865069E+04 </wgt>
<wgt id='scales1.00.5'>  0.112712345E+04 </wgt>
<wgt id='scales1.02.0'>  0.104007696E+04 </wgt>
<wgt id='scales2.01.0'>  0.927781398E+03 </wgt>
<wgt id='scales2.02.0'>  0.891891398E+03 </wgt>
</rwgt>
<scales uborns=' 0.641020330E+03'> </scales>
</event>
<event>
      5  10001  8.48998E+03  2.97096E+02  7.29735E-03  1.05729E-01
       2    -1     0     0   512     0  0.000000000E+00  0.000000000E+00  2.672133159E+03  2.672133159E+03  0.000000000E+00  0.00000E+00  9.000E+00
       1    -1     0     0   513     0  0.000000000E+00  0.000000000E+00 -7.257677460E+02  7.257677460E+02  0.000000000E+00  0.00000E+00  9.000E+00
       2     1     1     2   513     0  1.908504451E+02 -4.092970469E+02  2.578780809E+03  2.618025673E+03  3.051757812E-05  0.00000E+00  9.000E+00
      22     1     1     2     0     0  1.357845687E+00  2.791951495E+01 -2.606684165E+01  3.822071812E+01  1.651812370E-06  0.00000E+00  9.000E+00
       1     1     1     2   512     0 -1.922082908E+02  3.813775319E+02 -6.063485541E+02  7.416545138E+02  2.018548058E-05  0.00000E+00  9.000E+00
#rwgt            1          92   3.6779348887231336E-003        6024     6023808           0
<rwgt>
<wgt id='central'>  0.848997502E+04 </wgt>
<wgt id='sudakovwgt'>  0.470026674E-02 </wgt>
<wgt id='scales0.50.5'>  0.113225264E+05 </wgt>
<wgt id='scales0.51.0'>  0.101110583E+05 </wgt>
<wgt id='scales1.00.5'>  0.950721671E+04 </wgt>
<wgt id='scales1.02.0'>  0.764109848E+04 </wgt>
<wgt id='scales2.01.0'>  0.723354387E+04 </wgt>
<wgt id='scales2.02.0'>  0.651028873E+04 </wgt>
</rwgt>
<scales uborns=' 0.451856929E+03'> </scales>
</event>
<event>
      5  10001  2.68663E+03  1.19886E+01  7.29735E-03  1.87071E-01
       2    -1     0     0   512     0  0.000000000E+00  0.000000000E+00  1.462250693E+03  1.462250693E+03  0.000000000E+00  0.00000E+00  9.000E+00
       1    -1     0     0   511     0  0.000000000E+00  0.000000000E+00 -1.927651452E+03  1.927651452E+03  0.000000000E+00  0.00000E+00  9.000E+00
       2     1     1     2   511     0 -5.474496339E+02 -3.282799187E+01  9.506106257E+02  1.097469517E+03  2.157918644E-05  0.00000E+00  9.000E+00
       1     1     1     2   512     0  5.478300315E+02  4.481058309E+01 -1.813394782E+03  1.894868430E+03  0.000000000E+00  0.00000E+00  9.000E+00
      22     1     1     2     0     0 -3.803975875E-01 -1.198259122E+01  3.973833978E+02  3.975641986E+02  0.000000000E+00  0.00000E+00  9.000E+00
#rwgt            1          92   3.2362050346725867E-003        6024     6051178           0
<rwgt>
<wgt id='central'>  0.268662648E+04 </wgt>
<wgt id='sudakovwgt'>  0.661035208E-01 </wgt>
<wgt id='scales0.50.5'>  0.354260248E+04 </wgt>
<wgt id='scales0.51.0'>  0.318567363E+04 </wgt>
<wgt id='scales1.00.5'>  0.298764507E+04 </wgt>
<wgt id='scales1.02.0'>  0.243311590E+04 </wgt>
<wgt id='scales2.01.0'>  0.229742797E+04 </wgt>
<wgt id='scales2.02.0'>  0.208063950E+04 </wgt>
</rwgt>
<scales uborns=' 0.549013905E+03'> </scales>
</event>
<event>
      5  10001  3.19252E+01  1.27697E+02  7.29735E-03  1.19233E-01
      21    -1     0     0   511   514  0.000000000E+00  0.000000000E+00  8.969909028E+02  8.969909028E+02  0.000000000E+00  0.00000E+00  9.000E+00
      -4    -1     0     0     0   513  0.000000000E+00  0.000000000E+00 -1.910439991E+03  1.910439991E+03  0.000000000E+00  0.00000E+00  9.000E+00
      -4     1     1     2     0   514  3.644199440E+01  1.001451352E+03 -8.901960427E+02  1.340403605E+03  2.642899792E-05  0.00000E+00  9.000E+00
      21     1     1     2   511   513 -1.605729750E+02 -1.163357554E+03  8.249211376E+01  1.177280522E+03  1.713962627E-05  0.00000E+00  9.000E+00
      22     1     1     2     0     0  1.241309806E+02  1.619062018E+02 -2.057451589E+02  2.897467669E+02  2.697398305E-06  0.00000E+00  9.000E+00
#rwgt            1         199   1.5196277118884261E-004        6024     6075532           0
<rwgt>
<wgt id='central'>  0.319252214E+02 </wgt>
<wgt id='sudakovwgt'>  0.210350635E-02 </wgt>
<wgt id='scales0.50.5'>  0.411897487E+02 </wgt>
<wgt id='scales0.51.0'>  0.372802961E+02 </wgt>
<wgt id='scales1.00.5'>  0.352730827E+02 </wgt>
<wgt id='scales1.02.0'>  0.290064935E+02 </wgt>
<wgt id='scales2.01.0'>  0.276565508E+02 </wgt>
<wgt id='scales2.02.0'>  0.251280982E+02 </wgt>
</rwgt>
<scales uborns=' 0.118774982E+04'> </scales>
</event>
<event>
      5  10001  4.73426E+03  2.77429E+00  7.29735E-03  3.07571E-01
       2    -1     0     0   513     0  0.000000000E+00  0.000000000E+00  1.267988152E+03  1.267988152E+03  0.000000000E+00  0.00000E+00  9.000E+00
      21    -1     0     0   512   515  0.000000000E+00  0.000000000E+00 -1.270043429E+03  1.270043429E+03  0.000000000E+00  0.00000E+00  9.000E+00
       2     1     1     2   512     0  1.862000523E+02  4.637049632E+02  1.049236419E+03  1.162148793E+03  0.000000000E+00  0.00000E+00  9.000E+00
      21     1     1     2   513   515 -1.873557607E+02 -4.611828541E+02 -1.162523897E+03  1.264615996E+03  0.000000000E+00  0.00000E+00  9.000E+00
      22     1     1     2     0     0  1.155708452E+00 -2.522109005E+00  1.112322008E+02  1.112667928E+02  1.907348633E-06  0.00000E+00  9.000E+00
#rwgt            1         182   4.4822361322552490E-003        6024     6076016           0
<rwgt>
<wgt id='central'>  0.473426413E+04 </wgt>
<wgt id='sudakovwgt'>  0.143791982E+00 </wgt>
<wgt id='scales0.50.5'>  0.643619847E+04 </wgt>
<wgt id='scales0.51.0'>  0.562559473E+04 </wgt>
<wgt id='scales1.00.5'>  0.541642945E+04 </wgt>
<wgt id='scales1.02.0'>  0.417845003E+04 </wgt>
<wgt id='scales2.01.0'>  0.404121237E+04 </wgt>
<wgt id='scales2.02.0'>  0.356676735E+04 </wgt>
</rwgt>
<scales uborns=' 0.498738610E+03'> </scales>
</event>
<event>
      5  10001  5.73364E+05  2.12123E+01  7.29735E-03  1.64287E-01
       1    -1     0     0   513     0  0.000000000E+00  0.000000000E+00  6.954893224E+02  6.954893224E+02  0.000000000E+00  0.00000E+00  9.000E+00
      21    -1     0     0   514   513  0.000000000E+00  0.000000000E+00 -1.042727543E+02  1.042727543E+02  0.000000000E+00  0.00000E+00  9.000E+00
      22     1     1     2     0     0  7.666980700E+00  1.574014292E+00  1.653775671E+01  1.829637972E+01  0.000000000E+00  0.00000E+00  9.000E+00
      21     1     1     2   514   511 -2.191289190E+02 -4.045201428E+01  7.108624160E+01  2.338954945E+02  3.568322551E-06  0.00000E+00  9.000E+00
       1     1     1     2   511     0  2.114619383E+02  3.887799998E+01  5.035925698E+02  5.475702024E+02  7.629394531E-06  0.00000E+00  9.000E+00
#rwgt            1         181   3.8193675079080617E-003        6024     6086683           0
<rwgt>
<wgt id='central'>  0.573363511E+06 </wgt>
<wgt id='sudakovwgt'>  0.255909199E-01 </wgt>
<wgt id='scales0.50.5'>  0.712652597E+06 </wgt>
<wgt id='scales0.51.0'>  0.695240327E+06 </wgt>
<wgt id='scales1.00.5'>  0.587723882E+06 </wgt>
<wgt id='scales1.02.0'>  0.557133579E+06 </wgt>
<wgt id='scales2.01.0'>  0.481285529E+06 </wgt>
<wgt id='scales2.02.0'>  0.467661606E+06 </wgt>
</rwgt>
<scales uborns=' 0.222843407E+03'> </scales>
</event>
<event>
      5  10001  2.99737E+04  1.11879E+02  7.29735E-03  1.21674E-01
      -4    -1     0     0     0   512  0.000000000E+00  0.000000000E+00  5.715297770E+02  5.715297770E+02  0.000000000E+00  0.00000E+00  9.000E+00
       1    -1     0     0   512     0  0.000000000E+00  0.000000000E+00 -3.581966079E+02  3.581966079E+02  0.000000000E+00  0.00000E+00  9.000E+00
       1     1     1     2   513     0 -1.628489216E+02  3.147490348E+02 -1.624709144E+02  3.898506434E+02  6.877043296E-06  0.00000E+00  9.000E+00
      -4     1     1     2     0   513  7.178253172E+01 -1.894442549E+02  3.127523314E+02  3.726337053E+02  6.607249480E-06  0.00000E+00  9.000E+00
      22     1     1     2     0     0  9.106638987E+01 -1.253047799E+02  6.305175210E+01  1.672420362E+02  3.814697266E-06  0.00000E+00  9.000E+00
#rwgt            1         173   3.4573248612997752E-005        6024     6086860           0
<rwgt>
<wgt id='central'>  0.299737497E+05 </wgt>
<wgt id='sudakovwgt'>  0.584761349E-03 </wgt>
<wgt id='scales0.50.5'>  0.353677198E+05 </wgt>
<wgt id='scales0.51.0'>  0.358770125E+05 </wgt>
<wgt id='scales1.00.5'>  0.295482079E+05 </wgt>
<wgt id='scales1.02.0'>  0.301155223E+05 </wgt>
<wgt id='scales2.01.0'>  0.254309031E+05 </wgt>
<wgt id='scales2.02.0'>  0.255512309E+05 </wgt>
</rwgt>
<scales uborns=' 0.365381078E+03'> </scales>
</event>
<event>
      5  10001  1.52828E+03  9.64951E+01  7.29735E-03  1.24529E-01
       3    -1     0     0   513     0  0.000000000E+00  0.000000000E+00  9.417757715E+02  9.417757715E+02  0.000000000E+00  0.00000E+00  9.000E+00
       1    -1     0     0   511     0  0.000000000E+00  0.000000000E+00 -2.628318330E+03  2.628318330E+03  0.000000000E+00  0.00000E+00  9.000E+00
       3     1     1     2   511     0 -1.768077190E+02 -4.770163373E+02  5.999931813E+02  7.866367479E+02  1.321449896E-05  0.00000E+00  9.000E+00
       1     1     1     2   513     0  1.409421389E+02  5.857037036E+02 -2.483572811E+03  2.555591404E+03  4.315837288E-05  0.00000E+00  9.000E+00
      22     1     1     2     0     0  3.586558007E+01 -1.086873664E+02  1.970370715E+02  2.278659496E+02  3.814697266E-06  0.00000E+00  9.000E+00
#rwgt            1          93   1.9406548043061084E-004        6024     6087806           0
<rwgt>
<wgt id='central'>  0.152827910E+04 </wgt>
<wgt id='sudakovwgt'>  0.444545984E-03 </wgt>
<wgt id='scales0.50.5'>  0.206325403E+04 </wgt>
<wgt id='scales0.51.0'>  0.180841077E+04 </wgt>
<wgt id='scales1.00.5'>  0.174364691E+04 </wgt>
<wgt id='scales1.02.0'>  0.135078362E+04 </wgt>
<wgt id='scales2.01.0'>  0.130916168E+04 </wgt>
<wgt id='scales2.02.0'>  0.115711398E+04 </wgt>
</rwgt>
<scales uborns=' 0.604317872E+03'> </scales>
</event>
<event>
      5  10001  1.95378E+01  1.19927E+01  7.29735E-03  1.87056E-01
      21    -1     0     0   512   511  0.000000000E+00  0.000000000E+00  1.236260421E+03  1.236260421E+03  0.000000000E+00  0.00000E+00  9.000E+00
       2    -1     0     0   514     0  0.000000000E+00  0.000000000E+00 -1.563815072E+03  1.563815072E+03  0.000000000E+00  0.00000E+00  9.000E+00
       2     1     1     2   512     0  7.312416840E+02  2.906365797E+02 -4.084153576E+02  8.865591498E+02  1.705984480E-05  0.00000E+00  9.000E+00
      21     1     1     2   514   511 -1.205322598E+03 -4.849807955E+02  3.347892663E+02  1.341675367E+03  1.427329020E-05  0.00000E+00  9.000E+00
      22     1     1     2     0     0  4.740809144E+02  1.943442158E+02 -2.539285599E+02  5.718409754E+02  8.092194914E-06  0.00000E+00  9.000E+00
#rwgt            1         187   6.6362555507022232E-003        6024     6089183           0
<rwgt>
<wgt id='central'>  0.195378216E+02 </wgt>
<wgt id='sudakovwgt'>  0.160217358E+00 </wgt>
<wgt id='scales0.50.5'>  0.259934550E+02 </wgt>
<wgt id='scales0.51.0'>  0.227785857E+02 </wgt>
<wgt id='scales1.00.5'>  0.222952790E+02 </wgt>
<wgt id='scales1.02.0'>  0.172739524E+02 </wgt>
<wgt id='scales2.01.0'>  0.169485928E+02 </wgt>
<wgt id='scales2.02.0'>  0.149847570E+02 </wgt>
</rwgt>
<scales uborns=' 0.129927137E+04'> </scales>
</event>
<event>
      5  10001  1.49111E+04  1.59151E+01  7.29735E-03  1.74994E-01
      21    -1     0     0   513   515  0.000000000E+00  0.000000000E+00  1.138428935E+03  1.138428935E+03  0.000000000E+00  0.00000E+00  9.000E+00
      -2    -1     0     0     0   513  0.000000000E+00  0.000000000E+00 -5.093585662E+02  5.093585662E+02  0.000000000E+00  0.00000E+00  9.000E+00
      22     1     1     2     0     0 -6.152085291E+01 -1.163179184E+02 -1.283889633E+02  1.838434099E+02  0.000000000E+00  0.00000E+00  9.000E+00
      21     1     1     2   511   515  1.950050771E+02  3.616797979E+02  1.008119243E+03  1.088643038E+03  2.157918644E-05  0.00000E+00  9.000E+00
      -2     1     1     2     0   511 -1.334842242E+02 -2.453618795E+02 -2.506599105E+02  3.753010535E+02  4.672030912E-06  0.00000E+00  9.000E+00
#rwgt            1         197   5.6538952970200103E-004        6024     6090908           0
<rwgt>
<wgt id='central'>  0.149110548E+05 </wgt>
<wgt id='sudakovwgt'>  0.815532283E-03 </wgt>
<wgt id='scales0.50.5'>  0.200282862E+05 </wgt>
<wgt id='scales0.51.0'>  0.177975847E+05 </wgt>
<wgt id='scales1.00.5'>  0.167800173E+05 </wgt>
<wgt id='scales1.02.0'>  0.133535267E+05 </wgt>
<wgt id='scales2.01.0'>  0.126809304E+05 </wgt>
<wgt id='scales2.02.0'>  0.113563146E+05 </wgt>
</rwgt>
<scales uborns=' 0.410922728E+03'> </scales>
</event>
<event>
      4  10001  6.32715E+04  8.94427E-01  7.29735E-03  7.47106E-01
       1    -1     0     0   511     0  0.000000000E+00  0.000000000E+00  1.067375539E+03  1.067375539E+03  0.000000000E+00  0.00000E+00  9.000E+00
      21    -1     0     0   514   511  0.000000000E+00  0.000000000E+00 -1.247389960E+03  1.247389960E+03  0.000000000E+00  0.00000E+00  9.000E+00
       1     1     1     2   512     0 -7.061109439E+01  3.144766614E+02  1.021307889E+03  1.070958123E+03  0.000000000E+00  0.00000E+00  9.000E+00
      21     1     1     2   514   512  7.061109439E+01 -3.144766614E+02 -1.201322310E+03  1.243807377E+03  0.000000000E+00  0.00000E+00  9.000E+00
#rwgt            1         181   2.1930108851247743E-003        6024     6092456           0
<rwgt>
<wgt id='central'>  0.632715452E+05 </wgt>
<wgt id='sudakovwgt'>  0.159842919E+01 </wgt>
<wgt id='scales0.50.5'>  0.881062734E+05 </wgt>
<wgt id='scales0.51.0'>  0.759690770E+05 </wgt>
<wgt id='scales1.00.5'>  0.733800685E+05 </wgt>
<wgt id='scales1.02.0'>  0.551699848E+05 </wgt>
<wgt id='scales2.01.0'>  0.535434403E+05 </wgt>
<wgt id='scales2.02.0'>  0.466875416E+05 </wgt>
</rwgt>
<scales uborns=' 0.322306527E+03'> </scales>
</event>
<event>
      5  10001  1.20235E+04  1.72161E+02  7.29735E-03  1.14070E-01
      21    -1     0     0   512   514  0.000000000E+00  0.000000000E+00  9.853620021E+01  9.853620021E+01  0.000000000E+00  0.00000E+00  9.000E+00
       2    -1     0     0   514     0  0.000000000E+00  0.000000000E+00 -1.843171232E+03  1.843171232E+03  0.000000000E+00  0.00000E+00  9.000E+00
      22     1     1     2     0     0  2.140477419E+01 -2.708061718E+01 -7.574295699E+01  8.323773013E+01  1.348699152E-06  0.00000E+00  9.000E+00
      21     1     1     2   512   513 -1.132728253E+02  4.091798637E+02 -8.866345442E+02  9.830461376E+02  1.078959322E-05  0.00000E+00  9.000E+00
       2     1     1     2   513     0  9.186805109E+01 -3.820992465E+02 -7.822575305E+02  8.754235644E+02  1.078959322E-05  0.00000E+00  9.000E+00
#rwgt            1         187   9.8119529151828692E-003        6024     6093593           0
<rwgt>
<wgt id='central'>  0.120235291E+05 </wgt>
<wgt id='sudakovwgt'>  0.838982699E-03 </wgt>
<wgt id='scales0.50.5'>  0.151880022E+05 </wgt>
<wgt id='scales0.51.0'>  0.143387792E+05 </wgt>
<wgt id='scales1.00.5'>  0.127355992E+05 </wgt>
<wgt id='scales1.02.0'>  0.113530929E+05 </wgt>
<wgt id='scales2.01.0'>  0.102324881E+05 </wgt>
<wgt id='scales2.02.0'>  0.966194443E+04 </wgt>
</rwgt>
<scales uborns=' 0.426098585E+03'> </scales>
</event>
<event>
      5  10001  1.31488E+01  9.76738E-01  7.29735E-03  6.71022E-01
       1    -1     0     0   513     0  0.000000000E+00  0.000000000E+00  1.864922002E+03  1.864922002E+03  0.000000000E+00  0.00000E+00  9.000E+00
       1    -1     0     0   511     0  0.000000000E+00  0.000000000E+00 -1.463413846E+03  1.463413846E+03  0.000000000E+00  0.00000E+00  9.000E+00
       1     1     1     2   511     0  7.750843111E+02 -1.163907614E+03  1.086835728E+03  1.771058588E+03  2.157918644E-05  0.00000E+00  9.000E+00
       1     1     1     2   513     0 -5.219890735E+02  7.826939057E+02 -4.612431523E+02  1.047772680E+03  5.394796609E-06  0.00000E+00  9.000E+00
      22     1     1     2     0     0 -2.530952376E+02  3.812137078E+02 -2.240844198E+02  5.095045805E+02  1.144409180E-05  0.00000E+00  9.000E+00
#rwgt            1          91   5.4908353724363057E-004        6024     6093977           0
<rwgt>
<wgt id='central'>  0.131488449E+02 </wgt>
<wgt id='sudakovwgt'>  0.129069986E+00 </wgt>
<wgt id='scales0.50.5'>  0.172120487E+02 </wgt>
<wgt id='scales0.51.0'>  0.153101381E+02 </wgt>
<wgt id='scales1.00.5'>  0.147822172E+02 </wgt>
<wgt id='scales1.02.0'>  0.117822862E+02 </wgt>
<wgt id='scales2.01.0'>  0.114188340E+02 </wgt>
<wgt id='scales2.02.0'>  0.102321102E+02 </wgt>
</rwgt>
<scales uborns=' 0.139836952E+04'> </scales>
</event>
<event>
      4  10001  4.58695E+06  8.94427E-01  7.29735E-03  7.46366E-01
      -1    -1     0     0     0   512  0.000000000E+00  0.000000000E+00  1.098672872E+03  1.098672872E+03  0.000000000E+00  0.00000E+00  9.000E+00
      21    -1     0     0   514   513  0.000000000E+00  0.000000000E+00 -2.486124578E+01  2.486124578E+01  0.000000000E+00  0.00000E+00  9.000E+00
      -1     1     1     2     0   513  8.730240449E+01  1.310318174E+02  3.661609719E+02  3.985786050E+02  5.394796609E-06  0.00000E+00  9.000E+00
      21     1     1     2   514   512 -8.730240449E+01 -1.310318174E+02  7.076506547E+02  7.249555131E+02  7.629394531E-06  0.00000E+00  9.000E+00
#rwgt            1         191   3.8614406500824797E-004        6024     6109186           0
<rwgt>
<wgt id='central'>  0.458694850E+07 </wgt>
<wgt id='sudakovwgt'>  0.154446983E+01 </wgt>
<wgt id='scales0.50.5'>  0.565314892E+07 </wgt>
<wgt id='scales0.51.0'>  0.561968678E+07 </wgt>
<wgt id='scales1.00.5'>  0.461426276E+07 </wgt>
<wgt id='scales1.02.0'>  0.452059265E+07 </wgt>
<wgt id='scales2.01.0'>  0.381803026E+07 </wgt>
<wgt id='scales2.02.0'>  0.376279653E+07 </wgt>
</rwgt>
<scales uborns=' 0.157451729E+03'> </scales>
</event>
<event>
      4  10001  5.28514E+02  8.94427E-01  7.29735E-03  7.49090E-01
      21    -1     0     0   515   512  0.000000000E+00  0.000000000E+00  7.758862910E+02  7.758862910E+02  0.000000000E+00  0.00000E+00  9.000E+00
       1    -1     0     0   512     0  0.000000000E+00  0.000000000E+00 -8.160433623E+02  8.160433623E+02  0.000000000E+00  0.00000E+00  9.000E+00
       1     1     1     2   511     0 -3.298611497E+02  6.454262493E+02 -3.484716819E+02  8.042486770E+02  5.394796609E-06  0.00000E+00  9.000E+00
      21     1     1     2   515   511  3.298611497E+02 -6.454262493E+02  3.083146106E+02  7.876809763E+02  5.394796609E-06  0.00000E+00  9.000E+00
#rwgt            1         186   2.8621386620045078E-003        6024     6109883           0
<rwgt>
<wgt id='central'>  0.528514474E+03 </wgt>
<wgt id='sudakovwgt'>  0.158585222E+01 </wgt>
<wgt id='scales0.50.5'>  0.691406617E+03 </wgt>
<wgt id='scales0.51.0'>  0.623027093E+03 </wgt>
<wgt id='scales1.00.5'>  0.586520363E+03 </wgt>
<wgt id='scales1.02.0'>  0.479293371E+03 </wgt>
<wgt id='scales2.01.0'>  0.454185830E+03 </wgt>
<wgt id='scales2.02.0'>  0.411887401E+03 </wgt>
</rwgt>
<scales uborns=' 0.724833375E+03'> </scales>
</event>
<event>
      5  10001  3.59703E+03  7.54386E+01  7.29735E-03  1.29596E-01
       2    -1     0     0   511     0  0.000000000E+00  0.000000000E+00  2.311012887E+03  2.311012887E+03  0.000000000E+00  0.00000E+00  9.000E+00
      21    -1     0     0   513   514  0.000000000E+00  0.000000000E+00 -3.406418115E+02  3.406418115E+02  0.000000000E+00  0.00000E+00  9.000E+00
       2     1     1     2   513     0  3.614808663E+02 -3.382907466E+02  1.287755203E+03  1.379645791E+03  3.411968960E-05  0.00000E+00  9.000E+00
      21     1     1     2   511   514 -4.369106819E+02  3.371418513E+02 -3.259806121E+01  5.528274644E+02  2.137805154E-05  0.00000E+00  9.000E+00
      22     1     1     2     0     0  7.542981551E+01  1.148895318E+00  7.152139337E+02  7.191814430E+02  0.000000000E+00  0.00000E+00  9.000E+00
#rwgt            1         182   1.0001403683421397E-002        6024     6111526           0
<rwgt>
<wgt id='central'>  0.359703411E+04 </wgt>
<wgt id='sudakovwgt'>  0.253674389E-01 </wgt>
<wgt id='scales0.50.5'>  0.468690645E+04 </wgt>
<wgt id='scales0.51.0'>  0.426982730E+04 </wgt>
<wgt id='scales1.00.5'>  0.394838993E+04 </wgt>
<wgt id='scales1.02.0'>  0.329322985E+04 </wgt>
<wgt id='scales2.01.0'>  0.307313122E+04 </wgt>
<wgt id='scales2.02.0'>  0.281357883E+04 </wgt>
</rwgt>
<scales uborns=' 0.522494370E+03'> </scales>
</event>
<event>
      5  10001  6.60073E+02  4.45758E+02  7.29735E-03  1.00290E-01
       2    -1     0     0   513     0  0.000000000E+00  0.000000000E+00  2.373632228E+03  2.373632228E+03  0.000000000E+00  0.00000E+00  9.000E+00
       1    -1     0     0   512     0  0.000000000E+00  0.000000000E+00 -1.166831812E+03  1.166831812E+03  0.000000000E+00  0.00000E+00  9.000E+00
       2     1     1     2   512     0 -5.087922226E+02 -3.298682928E+02  1.921328948E+03  2.014742550E+03  3.051757812E-05  0.00000E+00  9.000E+00
       1     1     1     2   513     0  4.921285557E+02  3.889277714E+02 -1.029112258E+03  1.205208432E+03  2.157918644E-05  0.00000E+00  9.000E+00
      22     1     1     2     0     0  1.666366688E+01 -5.905947857E+01  3.145837257E+02  3.205130579E+02  0.000000000E+00  0.00000E+00  9.000E+00
#rwgt            1          92   3.5173990967938707E-003        6024     6112477           0
<rwgt>
<wgt id='central'>  0.660072994E+03 </wgt>
<wgt id='sudakovwgt'>  0.571706748E-04 </wgt>
<wgt id='scales0.50.5'>  0.875355599E+03 </wgt>
<wgt id='scales0.51.0'>  0.778720387E+03 </wgt>
<wgt id='scales1.00.5'>  0.741984679E+03 </wgt>
<wgt id='scales1.02.0'>  0.591897774E+03 </wgt>
<wgt id='scales2.01.0'>  0.566868704E+03 </wgt>
<wgt id='scales2.02.0'>  0.508320025E+03 </wgt>
</rwgt>
<scales uborns=' 0.697654475E+03'> </scales>
</event>
<event>
      5  10001  2.62616E+01  1.51174E+02  7.29735E-03  1.16259E-01
       2    -1     0     0   512     0  0.000000000E+00  0.000000000E+00  9.948250458E+02  9.948250458E+02  0.000000000E+00  0.00000E+00  9.000E+00
      21    -1     0     0   511   514  0.000000000E+00  0.000000000E+00 -1.584967229E+03  1.584967229E+03  0.000000000E+00  0.00000E+00  9.000E+00
       2     1     1     2   511     0  3.658930350E+02 -1.033831323E+03 -8.681491434E+01  1.100100790E+03  2.304658122E-05  0.00000E+00  9.000E+00
      21     1     1     2   512   514 -2.828370390E+02  1.168667066E+03 -5.384776230E+02  1.317473966E+03  2.157918644E-05  0.00000E+00  9.000E+00
      22     1     1     2     0     0 -8.305599593E+01 -1.348357426E+02  3.515035432E+01  1.622175186E+02  3.371747881E-06  0.00000E+00  9.000E+00
#rwgt            1         182   2.6350700884075150E-003        6024     6117860           0
<rwgt>
<wgt id='central'>  0.262616292E+02 </wgt>
<wgt id='sudakovwgt'>  0.575602979E-03 </wgt>
<wgt id='scales0.50.5'>  0.348469009E+02 </wgt>
<wgt id='scales0.51.0'>  0.306471572E+02 </wgt>
<wgt id='scales1.00.5'>  0.298603673E+02 </wgt>
<wgt id='scales1.02.0'>  0.232991383E+02 </wgt>
<wgt id='scales2.01.0'>  0.227626026E+02 </wgt>
<wgt id='scales2.02.0'>  0.201948482E+02 </wgt>
</rwgt>
<scales uborns=' 0.123069939E+04'> </scales>
</event>
<event>
      5  10001  1.00609E+03  7.94860E+02  7.29735E-03  9.34503E-02
      -4    -1     0     0     0   513  0.000000000E+00  0.000000000E+00  3.827674754E+02  3.827674754E+02  0.000000000E+00  0.00000E+00  9.000E+00
       2    -1     0     0   513     0  0.000000000E+00  0.000000000E+00 -1.236110330E+03  1.236110330E+03  0.000000000E+00  0.00000E+00  9.000E+00
       2     1     1     2   512     0 -3.413462168E+02 -1.398469762E+02 -3.948590566E+02  5.403592241E+02  7.629394531E-06  0.00000E+00  9.000E+00
      -4     1     1     2     0   512  1.185651073E+02  2.585442946E+02  2.167729606E+02  3.576218022E+02  6.607249480E-06  0.00000E+00  9.000E+00
      22     1     1     2     0     0  2.227811095E+02 -1.186973184E+02 -6.752567587E+02  7.208967792E+02  7.629394531E-06  0.00000E+00  9.000E+00
#rwgt            1         174   1.6231554684127239E-004        6024     6118910           0
<rwgt>
<wgt id='central'>  0.100608511E+04 </wgt>
<wgt id='sudakovwgt'>  0.142070618E-02 </wgt>
<wgt id='scales0.50.5'>  0.120780426E+04 </wgt>
<wgt id='scales0.51.0'>  0.118871164E+04 </wgt>
<wgt id='scales1.00.5'>  0.102224943E+04 </wgt>
<wgt id='scales1.02.0'>  0.985821767E+03 </wgt>
<wgt id='scales2.01.0'>  0.862936164E+03 </wgt>
<wgt id='scales2.02.0'>  0.845551843E+03 </wgt>
</rwgt>
<scales uborns=' 0.649036604E+03'> </scales>
</event>
<event>
      5  10001  2.03058E+03  1.78099E+01  7.29735E-03  1.70635E-01
       1    -1     0     0   512     0  0.000000000E+00  0.000000000E+00  3.938791424E+02  3.938791424E+02  0.000000000E+00  0.00000E+00  9.000E+00
      21    -1     0     0   511   514  0.000000000E+00  0.000000000E+00 -9.368398577E+02  9.368398577E+02  0.000000000E+00  0.00000E+00  9.000E+00
      22     1     1     2     0     0 -3.207028791E+02  3.499735446E+02 -4.025427185E+01  4.763950304E+02  1.296260569E-05  0.00000E+00  9.000E+00
      21     1     1     2   512   514  3.778767843E+02 -4.336253207E+02 -4.830634262E+02  7.511138772E+02  5.394796609E-06  0.00000E+00  9.000E+00
       1     1     1     2   511     0 -5.717390513E+01  8.365177605E+01 -1.964301718E+01  1.032100925E+02  2.707914517E-06  0.00000E+00  9.000E+00
#rwgt            1         181   1.2867399877022441E-003        6024     6123166           0
<rwgt>
<wgt id='central'>  0.203058385E+04 </wgt>
<wgt id='sudakovwgt'>  0.408629998E-01 </wgt>
<wgt id='scales0.50.5'>  0.264144648E+04 </wgt>
<wgt id='scales0.51.0'>  0.240527574E+04 </wgt>
<wgt id='scales1.00.5'>  0.222995987E+04 </wgt>
<wgt id='scales1.02.0'>  0.185926346E+04 </wgt>
<wgt id='scales2.01.0'>  0.173792597E+04 </wgt>
<wgt id='scales2.02.0'>  0.159130015E+04 </wgt>
</rwgt>
<scales uborns=' 0.575768947E+03'> </scales>
</event>
<event>
      5  10001  8.15536E+03  2.35112E+01  7.29735E-03  1.60774E-01
      21    -1     0     0   511   513  0.000000000E+00  0.000000000E+00  1.957593683E+02  1.957593683E+02  0.000000000E+00  0.00000E+00  9.000E+00
       1    -1     0     0   515     0  0.000000000E+00  0.000000000E+00 -1.057961547E+03  1.057961547E+03  0.000000000E+00  0.00000E+00  9.000E+00
       1     1     1     2   511     0  3.834489246E+02  2.142339422E+02 -4.134749964E+02  6.032336466E+02  1.078959322E-05  0.00000E+00  9.000E+00
      21     1     1     2   515   513 -3.986789483E+02 -2.062168327E+02 -4.092336815E+02  6.074063648E+02  7.629394531E-06  0.00000E+00  9.000E+00
      22     1     1     2     0     0  1.523002365E+01 -8.017109486E+00 -3.949350046E+01  4.308090347E+01  4.768371582E-07  0.00000E+00  9.000E+00
#rwgt            1         186   3.0681107181123649E-003        6024     6123421           0
<rwgt>
<wgt id='central'>  0.815535682E+04 </wgt>
<wgt id='sudakovwgt'>  0.380091514E-01 </wgt>
<wgt id='scales0.50.5'>  0.103779367E+05 </wgt>
<wgt id='scales0.51.0'>  0.971103019E+04 </wgt>
<wgt id='scales1.00.5'>  0.871543063E+04 </wgt>
<wgt id='scales1.02.0'>  0.764430613E+04 </wgt>
<wgt id='scales2.01.0'>  0.694935139E+04 </wgt>
<wgt id='scales2.02.0'>  0.651387179E+04 </wgt>
</rwgt>
<scales uborns=' 0.454934545E+03'> </scales>
</event>
<event>
      5  10001  3.72655E+03  5.87039E+00  7.29735E-03  2.26954E-01
      21    -1     0     0   512   514  0.000000000E+00  0.000000000E+00  1.781928940E+02  1.781928940E+02  0.000000000E+00  0.00000E+00  9.000E+00
       2    -1     0     0   511     0  0.000000000E+00  0.000000000E+00 -3.091141970E+03  3.091141970E+03  0.000000000E+00  0.00000E+00  9.000E+00
       2     1     1     2   512     0  4.385203214E+02  2.540935662E+02 -2.559023243E+03  2.608728344E+03  0.000000000E+00  0.00000E+00  9.000E+00
      21     1     1     2   511   514 -4.461821334E+02 -2.652204881E+02 -2.885916036E+02  5.938901558E+02  9.344061824E-06  0.00000E+00  9.000E+00
      22     1     1     2     0     0  7.661812054E+00  1.112692191E+01 -6.533422895E+01  6.671636402E+01  9.536743164E-07  0.00000E+00  9.000E+00
#rwgt            1         187   2.0629946509475364E-002        6024     6123729           0
<rwgt>
<wgt id='central'>  0.372654729E+04 </wgt>
<wgt id='sudakovwgt'>  0.824093902E-01 </wgt>
<wgt id='scales0.50.5'>  0.495132816E+04 </wgt>
<wgt id='scales0.51.0'>  0.442416058E+04 </wgt>
<wgt id='scales1.00.5'>  0.417059274E+04 </wgt>
<wgt id='scales1.02.0'>  0.334899255E+04 </wgt>
<wgt id='scales2.01.0'>  0.318343217E+04 </wgt>
<wgt id='scales2.02.0'>  0.286090100E+04 </wgt>
</rwgt>
<scales uborns=' 0.519371176E+03'> </scales>
</event>
<event>
      5  10001  3.64664E+03  3.09105E+01  7.29735E-03  1.52143E-01
      -2    -1     0     0     0   513  0.000000000E+00  0.000000000E+00  4.537393309E+02  4.537393309E+02  0.000000000E+00  0.00000E+00  9.000E+00
      21    -1     0     0   513   512  0.000000000E+00  0.000000000E+00 -6.266258566E+02  6.266258566E+02  0.000000000E+00  0.00000E+00  9.000E+00
      -2     1     1     2     0   514  1.617248717E+02  4.818769271E+02  1.786352572E+00  5.082946961E+02  1.217841557E-05  0.00000E+00  9.000E+00
      21     1     1     2   514   512 -1.609392175E+02 -4.869105128E+02 -1.968599520E+02  5.493060349E+02  1.595802358E-05  0.00000E+00  9.000E+00
      22     1     1     2     0     0 -7.856542334E-01  5.033585699E+00  2.218707378E+01  2.276445652E+01  6.743495762E-07  0.00000E+00  9.000E+00
#rwgt            1         192   5.7306228686566636E-004        6024     6125853           0
<rwgt>
<wgt id='central'>  0.364663816E+04 </wgt>
<wgt id='sudakovwgt'>  0.147937062E-02 </wgt>
<wgt id='scales0.50.5'>  0.471711140E+04 </wgt>
<wgt id='scales0.51.0'>  0.432893898E+04 </wgt>
<wgt id='scales1.00.5'>  0.397363122E+04 </wgt>
<wgt id='scales1.02.0'>  0.336066034E+04 </wgt>
<wgt id='scales2.01.0'>  0.311538127E+04 </wgt>
<wgt id='scales2.02.0'>  0.287106440E+04 </wgt>
</rwgt>
<scales uborns=' 0.521282790E+03'> </scales>
</event>
<event>
      5  10001  1.41537E+04  6.39568E+01  7.29735E-03  1.33238E-01
      21    -1     0     0   511   513  0.000000000E+00  0.000000000E+00  1.727410205E+02  1.727410205E+02  0.000000000E+00  0.00000E+00  9.000E+00
       2    -1     0     0   515     0  0.000000000E+00  0.000000000E+00 -1.420059888E+03  1.420059888E+03  0.000000000E+00  0.00000E+00  9.000E+00
       2     1     1     2   511     0  4.162655888E+02 -1.395222742E+02 -9.440053639E+02  1.041100203E+03  1.078959322E-05  0.00000E+00  9.000E+00
      21     1     1     2   515   513 -3.567887014E+02  1.630376392E+02 -2.313102242E+02  4.553941909E+02  1.348699152E-05  0.00000E+00  9.000E+00
      22     1     1     2     0     0 -5.947688743E+01 -2.351536498E+01 -7.200327972E+01  9.630651494E+01  2.523185073E-06  0.00000E+00  9.000E+00
#rwgt            1         187   1.2766503221317392E-002        6024     6126596           0
<rwgt>
<wgt id='central'>  0.141537214E+05 </wgt>
<wgt id='sudakovwgt'>  0.231830064E-01 </wgt>
<wgt id='scales0.50.5'>  0.179001386E+05 </wgt>
<wgt id='scales0.51.0'>  0.168900692E+05 </wgt>
<wgt id='scales1.00.5'>  0.150001276E+05 </wgt>
<wgt id='scales1.02.0'>  0.133648033E+05 </wgt>
<wgt id='scales2.01.0'>  0.120388905E+05 </wgt>
<wgt id='scales2.02.0'>  0.113678687E+05 </wgt>
</rwgt>
<scales uborns=' 0.414546533E+03'> </scales>
</event>
<event>
      5  10001  7.90923E+00  2.69615E+01  7.29735E-03  1.56332E-01
       2    -1     0     0   514     0  0.000000000E+00  0.000000000E+00  1.201132742E+03  1.201132742E+03  0.000000000E+00  0.00000E+00  9.000E+00
      21    -1     0     0   512   511  0.000000000E+00  0.000000000E+00 -2.047547048E+03  2.047547048E+03  0.000000000E+00  0.00000E+00  9.000E+00
       2     1     1     2   512     0 -1.716905229E+02  1.486437084E+03 -1.281630296E+02  1.501798456E+03  6.607249480E-06  0.00000E+00  9.000E+00
      21     1     1     2   514   511  1.945567643E+02 -1.523687854E+03 -7.313120966E+02  1.701262588E+03  2.157918644E-05  0.00000E+00  9.000E+00
      22     1     1     2     0     0 -2.286624146E+01  3.725076997E+01  1.306082037E+01  4.561874495E+01  6.951036328E-07  0.00000E+00  9.000E+00
#rwgt            1         182   2.1697317462228793E-003        6024     6126897           0
<rwgt>
<wgt id='central'>  0.790923473E+01 </wgt>
<wgt id='sudakovwgt'>  0.256882639E+01 </wgt>
<wgt id='scales0.50.5'>  0.106731801E+02 </wgt>
<wgt id='scales0.51.0'>  0.919414934E+01 </wgt>
<wgt id='scales1.00.5'>  0.918156025E+01 </wgt>
<wgt id='scales1.02.0'>  0.688479189E+01 </wgt>
<wgt id='scales2.01.0'>  0.687833412E+01 </wgt>
<wgt id='scales2.02.0'>  0.598742216E+01 </wgt>
</rwgt>
<scales uborns=' 0.153946640E+04'> </scales>
</event>
<event>
      5  10001  1.38671E+01  2.51294E+02  7.29735E-03  1.08154E-01
       2    -1     0     0   511     0  0.000000000E+00  0.000000000E+00  1.110744630E+03  1.110744630E+03  0.000000000E+00  0.00000E+00  9.000E+00
       2    -1     0     0   513     0  0.000000000E+00  0.000000000E+00 -2.030592283E+03  2.030592283E+03  0.000000000E+00  0.00000E+00  9.000E+00
       2     1     1     2   513     0 -1.123862110E+03  7.821236725E+02  1.469191275E+02  1.377087039E+03  3.057712468E-05  0.00000E+00  9.000E+00
       2     1     1     2   511     0  7.511084042E+02 -3.548207964E+02 -7.221032286E+02  1.100679202E+03  2.288818359E-05  0.00000E+00  9.000E+00
      22     1     1     2     0     0  3.727537062E+02 -4.273028761E+02 -3.446635513E+02  6.635706722E+02  1.206313194E-05  0.00000E+00  9.000E+00
#rwgt            1          97   2.4741451460084662E-003        6024     6130925           0
<rwgt>
<wgt id='central'>  0.138670669E+02 </wgt>
<wgt id='sudakovwgt'>  0.713623885E-02 </wgt>
<wgt id='scales0.50.5'>  0.176586702E+02 </wgt>
<wgt id='scales0.51.0'>  0.161492934E+02 </wgt>
<wgt id='scales1.00.5'>  0.151631740E+02 </wgt>
<wgt id='scales1.02.0'>  0.127506092E+02 </wgt>
<wgt id='scales2.01.0'>  0.120408503E+02 </wgt>
<wgt id='scales2.02.0'>  0.110713975E+02 </wgt>
</rwgt>
<scales uborns=' 0.138454357E+04'> </scales>
</event>
<event>
      4  10001  2.14549E+05  8.94427E-01  7.29735E-03  7.51680E-01
       2    -1     0     0   511     0  0.000000000E+00  0.000000000E+00  1.047065057E+03  1.047065057E+03  0.000000000E+00  0.00000E+00  9.000E+00
      21    -1     0     0   514   511  0.000000000E+00  0.000000000E+00 -1.024095892E+02  1.024095892E+02  0.000000000E+00  0.00000E+00  9.000E+00
       2     1     1     2   512     0 -1.148164911E+02 -2.362479562E+02  8.155178186E+02  8.567760710E+02  1.525878906E-05  0.00000E+00  9.000E+00
      21     1     1     2   514   512  1.148164911E+02  2.362479562E+02  1.291376492E+02  2.926985752E+02  6.877043296E-06  0.00000E+00  9.000E+00
#rwgt            1         182   9.5549464129421873E-003        6024     6137825           0
<rwgt>
<wgt id='central'>  0.214549383E+06 </wgt>
<wgt id='sudakovwgt'>  0.114450789E+02 </wgt>
<wgt id='scales0.50.5'>  0.266929283E+06 </wgt>
<wgt id='scales0.51.0'>  0.258981397E+06 </wgt>
<wgt id='scales1.00.5'>  0.221133300E+06 </wgt>
<wgt id='scales1.02.0'>  0.207528263E+06 </wgt>
<wgt id='scales2.01.0'>  0.180764210E+06 </wgt>
<wgt id='scales2.02.0'>  0.174849021E+06 </wgt>
</rwgt>
<scales uborns=' 0.262670751E+03'> </scales>
</event>
<event>
      5  10001  5.48334E+01  1.76504E+02  7.29735E-03  1.13660E-01
       2    -1     0     0   512     0  0.000000000E+00  0.000000000E+00  2.273857607E+03  2.273857607E+03  0.000000000E+00  0.00000E+00  9.000E+00
      21    -1     0     0   513   511  0.000000000E+00  0.000000000E+00 -5.488679914E+02  5.488679914E+02  0.000000000E+00  0.00000E+00  9.000E+00
       2     1     1     2   513     0  5.042872685E+02  7.350982261E+00  6.182055571E+02  7.978331887E+02  1.321449896E-05  0.00000E+00  9.000E+00
      21     1     1     2   512   511 -1.060748405E+03  1.516149920E+02  4.872608298E+02  1.177114014E+03  2.472206382E-05  0.00000E+00  9.000E+00
      22     1     1     2     0     0  5.564611367E+02 -1.589659743E+02  6.195232283E+02  8.477783956E+02  1.321449896E-05  0.00000E+00  9.000E+00
#rwgt            1         182   9.0945777105689522E-003        6024     6154027           0
<rwgt>
<wgt id='central'>  0.548334164E+02 </wgt>
<wgt id='sudakovwgt'>  0.842738468E-03 </wgt>
<wgt id='scales0.50.5'>  0.724495846E+02 </wgt>
<wgt id='scales0.51.0'>  0.641448122E+02 </wgt>
<wgt id='scales1.00.5'>  0.619326321E+02 </wgt>
<wgt id='scales1.02.0'>  0.489215426E+02 </wgt>
<wgt id='scales2.01.0'>  0.474298976E+02 </wgt>
<wgt id='scales2.02.0'>  0.423162481E+02 </wgt>
</rwgt>
<scales uborns=' 0.107754906E+04'> </scales>
</event>
<event>
      5  10001  3.02797E+05  1.13425E+02  7.29735E-03  1.21416E-01
      -5    -1     0     0     0   514  0.000000000E+00  0.000000000E+00  5.801214295E+01  5.801214295E+01  0.000000000E+00  0.00000E+00  9.000E+00
       2    -1     0     0   514     0  0.000000000E+00  0.000000000E+00 -2.031217570E+03  2.031217570E+03  0.000000000E+00  0.00000E+00  9.000E+00
       2     1     1     2   512     0 -9.000852355E+01  2.079081433E+02 -6.082999928E+02  6.491195665E+02  1.525878906E-05  0.00000E+00  9.000E+00
      -5     1     1     2     0   512  4.188818184E+00 -2.820711408E+02 -5.578436507E+02  6.251169597E+02  7.629394531E-06  0.00000E+00  9.000E+00
      22     1     1     2     0     0  8.581970537E+01  7.416299748E+01 -8.070617834E+02  8.149931867E+02  1.078959322E-05  0.00000E+00  9.000E+00
#rwgt            1         178   1.4486421297928671E-004        6024     6154823           0
<rwgt>
<wgt id='central'>  0.302797364E+06 </wgt>
<wgt id='sudakovwgt'>  0.222789013E-01 </wgt>
<wgt id='scales0.50.5'>  0.336320365E+06 </wgt>
<wgt id='scales0.51.0'>  0.366075648E+06 </wgt>
<wgt id='scales1.00.5'>  0.278185119E+06 </wgt>
<wgt id='scales1.02.0'>  0.321413704E+06 </wgt>
<wgt id='scales2.01.0'>  0.254788504E+06 </wgt>
<wgt id='scales2.02.0'>  0.270453527E+06 </wgt>
</rwgt>
<scales uborns=' 0.247954890E+03'> </scales>
</event>
<event>
      5  10001  2.16480E+03  2.15715E+01  7.29735E-03  1.63703E-01
       2    -1     0     0   513     0  0.000000000E+00  0.000000000E+00  1.193224088E+03  1.193224088E+03  0.000000000E+00  0.00000E+00  9.000E+00
      21    -1     0     0   512   513  0.000000000E+00  0.000000000E+00 -2.952178732E+02  2.952178732E+02  0.000000000E+00  0.00000E+00  9.000E+00
       2     1     1     2   511     0  5.634362989E+02 -6.292744171E+01  5.160005788E+02  7.666008890E+02  1.321449896E-05  0.00000E+00  9.000E+00
      21     1     1     2   512   511 -5.707448554E+02  4.263173982E+01  3.189703974E+02  6.552169637E+02  6.607249480E-06  0.00000E+00  9.000E+00
      22     1     1     2     0     0  7.308556476E+00  2.029570189E+01  6.303523870E+01  6.662410848E+01  0.000000000E+00  0.00000E+00  9.000E+00
#rwgt            1         182   6.5139937710952476E-003        6024     6156069           0
<rwgt>
<wgt id='central'>  0.216479864E+04 </wgt>
<wgt id='sudakovwgt'>  0.415266271E-01 </wgt>
<wgt id='scales0.50.5'>  0.275844300E+04 </wgt>
<wgt id='scales0.51.0'>  0.256486609E+04 </wgt>
<wgt id='scales1.00.5'>  0.232818291E+04 </wgt>
<wgt id='scales1.02.0'>  0.201883271E+04 </wgt>
<wgt id='scales2.01.0'>  0.185243530E+04 </wgt>
<wgt id='scales2.02.0'>  0.172753001E+04 </wgt>
</rwgt>
<scales uborns=' 0.569535140E+03'> </scales>
</event>
<event>
      4  10001  2.32955E+04  8.94427E-01  7.29735E-03  7.50214E-01
      21    -1     0     0   511   512  0.000000000E+00  0.000000000E+00  1.175173113E+02  1.175173113E+02  0.000000000E+00  0.00000E+00  9.000E+00
       1    -1     0     0   512     0  0.000000000E+00  0.000000000E+00 -1.485500053E+03  1.485500053E+03  0.000000000E+00  0.00000E+00  9.000E+00
       1     1     1     2   514     0 -3.705221852E+02  8.957999856E+01 -1.012134545E+03  1.081539460E+03  1.078959322E-05  0.00000E+00  9.000E+00
      21     1     1     2   511   514  3.705221852E+02 -8.957999856E+01 -3.558481971E+02  5.214779048E+02  1.144409180E-05  0.00000E+00  9.000E+00
#rwgt            1         186   6.4550210599799299E-003        6024     6158438           0
<rwgt>
<wgt id='central'>  0.232955384E+05 </wgt>
<wgt id='sudakovwgt'>  0.209712652E+01 </wgt>
<wgt id='scales0.50.5'>  0.297013081E+05 </wgt>
<wgt id='scales0.51.0'>  0.278548994E+05 </wgt>
<wgt id='scales1.00.5'>  0.248396813E+05 </wgt>
<wgt id='scales1.02.0'>  0.218632397E+05 </wgt>
<wgt id='scales2.01.0'>  0.197817594E+05 </wgt>
<wgt id='scales2.02.0'>  0.185655318E+05 </wgt>
</rwgt>
<scales uborns=' 0.381197148E+03'> </scales>
</event>
<event>
      5  10001  2.38491E+04  4.59333E+01  7.29735E-03  1.41211E-01
      21    -1     0     0   514   512  0.000000000E+00  0.000000000E+00  1.442223214E+02  1.442223214E+02  0.000000000E+00  0.00000E+00  9.000E+00
       1    -1     0     0   512     0  0.000000000E+00  0.000000000E+00 -1.363596752E+03  1.363596752E+03  0.000000000E+00  0.00000E+00  9.000E+00
       1     1     1     2   513     0  6.762134961E+00 -3.594495424E+02 -7.835349957E+02  8.620770206E+02  1.525878906E-05  0.00000E+00  9.000E+00
      21     1     1     2   514   513 -2.815583532E+01  4.000965331E+02 -2.958085825E+02  4.983700476E+02  5.394796609E-06  0.00000E+00  9.000E+00
      22     1     1     2     0     0  2.139370036E+01 -4.064699071E+01 -1.400308521E+02  1.473720048E+02  1.907348633E-06  0.00000E+00  9.000E+00
#rwgt            1         186   5.8235596761946791E-003        6024     6159959           0
<rwgt>
<wgt id='central'>  0.238491277E+05 </wgt>
<wgt id='sudakovwgt'>  0.203731912E-01 </wgt>
<wgt id='scales0.50.5'>  0.302986468E+05 </wgt>
<wgt id='scales0.51.0'>  0.285195674E+05 </wgt>
<wgt id='scales1.00.5'>  0.253368310E+05 </wgt>
<wgt id='scales1.02.0'>  0.224627855E+05 </wgt>
<wgt id='scales2.01.0'>  0.202502514E+05 </wgt>
<wgt id='scales2.02.0'>  0.190731329E+05 </wgt>
</rwgt>
<scales uborns=' 0.379694501E+03'> </scales>
</event>
<event>
      5  10001  5.76904E+02  6.60807E+01  7.29735E-03  1.32500E-01
      21    -1     0     0   513   512  0.000000000E+00  0.000000000E+00  6.358562295E+02  6.358562295E+02  0.000000000E+00  0.00000E+00  9.000E+00
      -1    -1     0     0     0   511  0.000000000E+00  0.000000000E+00 -1.228042158E+03  1.228042158E+03  0.000000000E+00  0.00000E+00  9.000E+00
      -1     1     1     2     0   512  2.508352041E+02  6.373656832E+02  2.725341205E+02  7.371758002E+02  1.144409180E-05  0.00000E+00  9.000E+00
      21     1     1     2   513   511 -2.794768587E+02 -6.339912792E+02 -8.201790608E+02  1.073660071E+03  2.157918644E-05  0.00000E+00  9.000E+00
      22     1     1     2     0     0  2.864165463E+01 -3.374403940E+00 -4.454098775E+01  5.306251569E+01  4.768371582E-07  0.00000E+00  9.000E+00
#rwgt            1         196   5.3762700829732719E-005        6024     6160120           0
<rwgt>
<wgt id='central'>  0.576903563E+03 </wgt>
<wgt id='sudakovwgt'>  0.251579663E-01 </wgt>
<wgt id='scales0.50.5'>  0.772740248E+03 </wgt>
<wgt id='scales0.51.0'>  0.680279447E+03 </wgt>
<wgt id='scales1.00.5'>  0.655314433E+03 </wgt>
<wgt id='scales1.02.0'>  0.512116755E+03 </wgt>
<wgt id='scales2.01.0'>  0.495641788E+03 </wgt>
<wgt id='scales2.02.0'>  0.439980420E+03 </wgt>
</rwgt>
<scales uborns=' 0.713989814E+03'> </scales>
</event>
<event>
      4  10001  5.47998E+01  8.94427E-01  7.29735E-03  7.52103E-01
       1    -1     0     0   514     0  0.000000000E+00  0.000000000E+00  5.183501434E+02  5.183501434E+02  0.000000000E+00  0.00000E+00  9.000E+00
       1    -1     0     0   512     0  0.000000000E+00  0.000000000E+00 -2.505443933E+03  2.505443933E+03  0.000000000E+00  0.00000E+00  9.000E+00
       1     1     1     2   514     0  2.446455837E+02  1.049530800E+03 -1.485192693E+03  1.834983296E+03  3.051757812E-05  0.00000E+00  9.000E+00
       1     1     1     2   512     0 -2.446455837E+02 -1.049530800E+03 -5.019010966E+02  1.188810780E+03  1.525878906E-05  0.00000E+00  9.000E+00
#rwgt            1          91   2.5311504817918643E-004        6024     6160301           0
<rwgt>
<wgt id='central'>  0.547998292E+02 </wgt>
<wgt id='sudakovwgt'>  0.758707860E+01 </wgt>
<wgt id='scales0.50.5'>  0.711989710E+02 </wgt>
<wgt id='scales0.51.0'>  0.641053770E+02 </wgt>
<wgt id='scales1.00.5'>  0.608636834E+02 </wgt>
<wgt id='scales1.02.0'>  0.496580888E+02 </wgt>
<wgt id='scales2.01.0'>  0.474009158E+02 </wgt>
<wgt id='scales2.02.0'>  0.429534211E+02 </wgt>
</rwgt>
<scales uborns=' 0.107766709E+04'> </scales>
</event>
<event>
      4  10001  3.96332E+05  8.94427E-01  7.29735E-03  7.48507E-01
      -3    -1     0     0     0   511  0.000000000E+00  0.000000000E+00  7.951001014E+01  7.951001014E+01  0.000000000E+00  0.00000E+00  9.000E+00
      21    -1     0     0   513   514  0.000000000E+00  0.000000000E+00 -7.780524013E+02  7.780524013E+02  0.000000000E+00  0.00000E+00  9.000E+00
      -3     1     1     2     0   514 -1.930251088E+02 -1.375788676E+02 -4.791546198E+02  5.345800100E+02  0.000000000E+00  0.00000E+00  9.000E+00
      21     1     1     2   513   511  1.930251088E+02  1.375788676E+02 -2.193877714E+02  3.229824014E+02  4.672030912E-06  0.00000E+00  9.000E+00
#rwgt            1         193   1.7127101561512716E-004        6024     6175402           0
<rwgt>
<wgt id='central'>  0.396332277E+06 </wgt>
<wgt id='sudakovwgt'>  0.148742385E+01 </wgt>
<wgt id='scales0.50.5'>  0.498144256E+06 </wgt>
<wgt id='scales0.51.0'>  0.479750489E+06 </wgt>
<wgt id='scales1.00.5'>  0.411527479E+06 </wgt>
<wgt id='scales1.02.0'>  0.380731301E+06 </wgt>
<wgt id='scales2.01.0'>  0.333154601E+06 </wgt>
<wgt id='scales2.02.0'>  0.320040735E+06 </wgt>
</rwgt>
<scales uborns=' 0.237037207E+03'> </scales>
</event>
<event>
      5  10001  2.15298E+01  1.13601E+01  7.29735E-03  1.89565E-01
       1    -1     0     0   514     0  0.000000000E+00  0.000000000E+00  1.248197279E+03  1.248197279E+03  0.000000000E+00  0.00000E+00  9.000E+00
       1    -1     0     0   512     0  0.000000000E+00  0.000000000E+00 -1.336606604E+03  1.336606604E+03  0.000000000E+00  0.00000E+00  9.000E+00
       1     1     1     2   512     0  4.934193056E+02  1.180934916E+03 -1.100391863E+02  1.284592741E+03  3.795575856E-05  0.00000E+00  9.000E+00
       1     1     1     2   514     0 -4.825346525E+02 -1.177682789E+03  4.577475188E+01  1.273527294E+03  3.178755438E-05  0.00000E+00  9.000E+00
      22     1     1     2     0     0 -1.088465309E+01 -3.252127566E+00 -2.414489015E+01  2.668384768E+01  0.000000000E+00  0.00000E+00  9.000E+00
#rwgt            1          91   3.8686710850885185E-004        6024     6175771           0
<rwgt>
<wgt id='central'>  0.215297808E+02 </wgt>
<wgt id='sudakovwgt'>  0.466857294E-01 </wgt>
<wgt id='scales0.50.5'>  0.275845967E+02 </wgt>
<wgt id='scales0.51.0'>  0.251089265E+02 </wgt>
<wgt id='scales1.00.5'>  0.236525783E+02 </wgt>
<wgt id='scales1.02.0'>  0.197083993E+02 </wgt>
<wgt id='scales2.01.0'>  0.186715677E+02 </wgt>
<wgt id='scales2.02.0'>  0.170919707E+02 </wgt>
</rwgt>
<scales uborns=' 0.127627509E+04'> </scales>
</event>
<event>
      5  10001  1.32193E+05  3.53887E+00  7.29735E-03  2.76668E-01
      21    -1     0     0   511   512  0.000000000E+00  0.000000000E+00  3.004552157E+01  3.004552157E+01  0.000000000E+00  0.00000E+00  9.000E+00
       2    -1     0     0   513     0  0.000000000E+00  0.000000000E+00 -3.936541901E+03  3.936541901E+03  0.000000000E+00  0.00000E+00  9.000E+00
       2     1     1     2   511     0 -9.162828658E+01 -1.957699330E+02 -2.321465633E+03  2.331506872E+03  4.315837288E-05  0.00000E+00  9.000E+00
      21     1     1     2   513   512  1.175602692E+02  2.594423410E+02 -8.419341434E+02  8.888103549E+02  1.078959322E-05  0.00000E+00  9.000E+00
      22     1     1     2     0     0 -2.593198264E+01 -6.367240805E+01 -7.430966035E+02  7.462701960E+02  1.078959322E-05  0.00000E+00  9.000E+00
#rwgt            1         187   2.2221733066648583E-002        6024     6179468           0
<rwgt>
<wgt id='central'>  0.132193373E+06 </wgt>
<wgt id='sudakovwgt'>  0.112263126E-02 </wgt>
<wgt id='scales0.50.5'>  0.172867948E+06 </wgt>
<wgt id='scales0.51.0'>  0.159227197E+06 </wgt>
<wgt id='scales1.00.5'>  0.143517772E+06 </wgt>
<wgt id='scales1.02.0'>  0.121851094E+06 </wgt>
<wgt id='scales2.01.0'>  0.111574393E+06 </wgt>
<wgt id='scales2.02.0'>  0.102845550E+06 </wgt>
</rwgt>
<scales uborns=' 0.284858216E+03'> </scales>
</event>
<event>
      4  10001  2.09396E+05  8.94427E-01  7.29735E-03  7.51334E-01
      -1    -1     0     0     0   514  0.000000000E+00  0.000000000E+00  3.190201591E+02  3.190201591E+02  0.000000000E+00  0.00000E+00  9.000E+00
      21    -1     0     0   511   512  0.000000000E+00  0.000000000E+00 -2.229263657E+02  2.229263657E+02  0.000000000E+00  0.00000E+00  9.000E+00
      -1     1     1     2     0   512  1.805944428E+02 -1.922120291E+02  8.815633220E+01  2.780851593E+02  3.438521648E-06  0.00000E+00  9.000E+00
      21     1     1     2   511   514 -1.805944428E+02  1.922120291E+02  7.937461255E+00  2.638613655E+02  5.901762864E-06  0.00000E+00  9.000E+00
#rwgt            1         191   9.5626665420041638E-004        6024     6181340           0
<rwgt>
<wgt id='central'>  0.209395814E+06 </wgt>
<wgt id='sudakovwgt'>  0.215969188E+01 </wgt>
<wgt id='scales0.50.5'>  0.262072391E+06 </wgt>
<wgt id='scales0.51.0'>  0.252733659E+06 </wgt>
<wgt id='scales1.00.5'>  0.217133367E+06 </wgt>
<wgt id='scales1.02.0'>  0.201465368E+06 </wgt>
<wgt id='scales2.01.0'>  0.176438509E+06 </wgt>
<wgt id='scales2.02.0'>  0.169756104E+06 </wgt>
</rwgt>
<scales uborns=' 0.263741951E+03'> </scales>
</event>
<event>
      5  10001  1.55494E+03  1.70980E+01  7.29735E-03  1.72190E-01
       2    -1     0     0   512     0  0.000000000E+00  0.000000000E+00  1.208571726E+03  1.208571726E+03  0.000000000E+00  0.00000E+00  9.000E+00
      21    -1     0     0   515   512  0.000000000E+00  0.000000000E+00 -4.080932367E+02  4.080932367E+02  0.000000000E+00  0.00000E+00  9.000E+00
       2     1     1     2   513     0 -3.257688070E+02  1.150023709E+02  4.772628020E+02  5.891779384E+02  5.394796609E-06  0.00000E+00  9.000E+00
      21     1     1     2   515   513  5.632571445E+02 -2.136513055E+02 -1.500599008E+01  6.026032450E+02  1.347750515E-05  0.00000E+00  9.000E+00
      22     1     1     2     0     0 -2.374883375E+02  9.864893459E+01  3.382216771E+02  4.248837789E+02  9.344061824E-06  0.00000E+00  9.000E+00
#rwgt            1         182   7.9211052512014064E-003        6024     6182239           0
<rwgt>
<wgt id='central'>  0.155494265E+04 </wgt>
<wgt id='sudakovwgt'>  0.235847938E-02 </wgt>
<wgt id='scales0.50.5'>  0.200707968E+04 </wgt>
<wgt id='scales0.51.0'>  0.184007312E+04 </wgt>
<wgt id='scales1.00.5'>  0.169606764E+04 </wgt>
<wgt id='scales1.02.0'>  0.143217887E+04 </wgt>
<wgt id='scales2.01.0'>  0.133192881E+04 </wgt>
<wgt id='scales2.02.0'>  0.122677422E+04 </wgt>
</rwgt>
<scales uborns=' 0.602538770E+03'> </scales>
</event>
<event>
      5  10001  2.51028E+01  5.17704E+02  7.29735E-03  9.84245E-02
      21    -1     0     0   513   514  0.000000000E+00  0.000000000E+00  5.554357511E+02  5.554357511E+02  0.000000000E+00  0.00000E+00  9.000E+00
       2    -1     0     0   514     0  0.000000000E+00  0.000000000E+00 -2.869129264E+03  2.869129264E+03  0.000000000E+00  0.00000E+00  9.000E+00
       2     1     1     2   511     0 -2.681465740E+02 -7.134125798E+02 -5.751331170E+02  9.547974636E+02  2.412626389E-05  0.00000E+00  9.000E+00
      21     1     1     2   513   511  1.266902501E+02  1.163250060E+03 -7.941320503E+02  1.414159409E+03  3.236877966E-05  0.00000E+00  9.000E+00
      22     1     1     2     0     0  1.414563239E+02 -4.498374801E+02 -9.444283451E+02  1.055608142E+03  1.078959322E-05  0.00000E+00  9.000E+00
#rwgt            1         187   9.4700368667101197E-003        6024     6185390           0
<rwgt>
<wgt id='central'>  0.251027716E+02 </wgt>
<wgt id='sudakovwgt'>  0.917857688E-03 </wgt>
<wgt id='scales0.50.5'>  0.335198961E+02 </wgt>
<wgt id='scales0.51.0'>  0.292905364E+02 </wgt>
<wgt id='scales1.00.5'>  0.287274782E+02 </wgt>
<wgt id='scales1.02.0'>  0.221258458E+02 </wgt>
<wgt id='scales2.01.0'>  0.217609305E+02 </wgt>
<wgt id='scales2.02.0'>  0.191802903E+02 </wgt>
</rwgt>
<scales uborns=' 0.124088189E+04'> </scales>
</event>
<event>
      5  10001  3.78490E+03  6.45151E+00  7.29735E-03  2.20687E-01
       1    -1     0     0   513     0  0.000000000E+00  0.000000000E+00  5.045485876E+03  5.045485876E+03  0.000000000E+00  0.00000E+00  9.000E+00
      21    -1     0     0   511   513  0.000000000E+00  0.000000000E+00 -1.037381584E+02  1.037381584E+02  0.000000000E+00  0.00000E+00  9.000E+00
       1     1     1     2   512     0  2.782425277E+02  4.372291203E+02  4.059607415E+03  4.092554284E+03  4.315837288E-05  0.00000E+00  9.000E+00
      21     1     1     2   511   512 -2.725385752E+02 -4.402435693E+02  6.812845597E+02  8.557104221E+02  2.750817318E-05  0.00000E+00  9.000E+00
      22     1     1     2     0     0 -5.703952543E+00  3.014449050E+00  2.008557433E+02  2.009593282E+02  0.000000000E+00  0.00000E+00  9.000E+00
#rwgt            1         181   3.5693188703449030E-004        6024     6185837           0
<rwgt>
<wgt id='central'>  0.378490457E+04 </wgt>
<wgt id='sudakovwgt'>  0.238325911E-01 </wgt>
<wgt id='scales0.50.5'>  0.520739255E+04 </wgt>
<wgt id='scales0.51.0'>  0.449369613E+04 </wgt>
<wgt id='scales1.00.5'>  0.438602422E+04 </wgt>
<wgt id='scales1.02.0'>  0.329458773E+04 </wgt>
<wgt id='scales2.01.0'>  0.323311966E+04 </wgt>
<wgt id='scales2.02.0'>  0.281428739E+04 </wgt>
</rwgt>
<scales uborns=' 0.518005314E+03'> </scales>
</event>
<event>
      5  10001  2.57553E+01  6.88870E+01  7.29735E-03  1.31574E-01
       2    -1     0     0   514     0  0.000000000E+00  0.000000000E+00  2.025365516E+03  2.025365516E+03  0.000000000E+00  0.00000E+00  9.000E+00
       2    -1     0     0   512     0  0.000000000E+00  0.000000000E+00 -1.297939714E+03  1.297939714E+03  0.000000000E+00  0.00000E+00  9.000E+00
       2     1     1     2   514     0 -4.264921301E+02  1.173371089E+03  1.164657331E+03  1.707372821E+03  3.051757812E-05  0.00000E+00  9.000E+00
       2     1     1     2   512     0  3.577384505E+02 -1.169086875E+03 -6.553711511E+02  1.387174201E+03  7.629394531E-06  0.00000E+00  9.000E+00
      22     1     1     2     0     0  6.875367964E+01 -4.284214539E+00  2.181396218E+02  2.287582076E+02  2.697398305E-06  0.00000E+00  9.000E+00
#rwgt            1          97   3.0825034021781739E-003        6024     6186220           0
<rwgt>
<wgt id='central'>  0.257553110E+02 </wgt>
<wgt id='sudakovwgt'>  0.395071107E-01 </wgt>
<wgt id='scales0.50.5'>  0.328831132E+02 </wgt>
<wgt id='scales0.51.0'>  0.300544011E+02 </wgt>
<wgt id='scales1.00.5'>  0.281793819E+02 </wgt>
<wgt id='scales1.02.0'>  0.236684901E+02 </wgt>
<wgt id='scales2.01.0'>  0.223249701E+02 </wgt>
<wgt id='scales2.02.0'>  0.205161009E+02 </wgt>
</rwgt>
<scales uborns=' 0.123507975E+04'> </scales>
</event>
<event>
      5  10001  7.13516E+01  1.82128E+03  7.29735E-03  8.51482E-02
       2    -1     0     0   511     0  0.000000000E+00  0.000000000E+00  1.654944216E+03  1.654944216E+03  0.000000000E+00  0.00000E+00  9.000E+00
       2    -1     0     0   513     0  0.000000000E+00  0.000000000E+00 -1.745646752E+03  1.745646752E+03  0.000000000E+00  0.00000E+00  9.000E+00
       2     1     1     2   511     0  7.637803309E+02 -3.724417996E+02 -1.156490203E+03  1.435110755E+03  0.000000000E+00  0.00000E+00  9.000E+00
       2     1     1     2   513     0 -5.616607061E+02  4.886158190E+02 -1.225672799E+02  7.544739263E+02  1.839380409E-05  0.00000E+00  9.000E+00
      22     1     1     2     0     0 -2.021196248E+02 -1.161740195E+02  1.188354948E+03  1.211006287E+03  2.157918644E-05  0.00000E+00  9.000E+00
#rwgt            1          97   5.1321562473931534E-003        6024     6205930           0
<rwgt>
<wgt id='central'>  0.713516019E+02 </wgt>
<wgt id='sudakovwgt'>  0.923655978E-03 </wgt>
<wgt id='scales0.50.5'>  0.923111884E+02 </wgt>
<wgt id='scales0.51.0'>  0.835406708E+02 </wgt>
<wgt id='scales1.00.5'>  0.788424480E+02 </wgt>
<wgt id='scales1.02.0'>  0.649884827E+02 </wgt>
<wgt id='scales2.01.0'>  0.616721137E+02 </wgt>
<wgt id='scales2.02.0'>  0.561722105E+02 </wgt>
</rwgt>
<scales uborns=' 0.102815158E+04'> </scales>
</event>
<event>
      5  10001  3.14685E+01  4.89588E+01  7.29735E-03  1.39599E-01
      21    -1     0     0   512   514  0.000000000E+00  0.000000000E+00  1.809211790E+03  1.809211790E+03  0.000000000E+00  0.00000E+00  9.000E+00
       4    -1     0     0   511     0  0.000000000E+00  0.000000000E+00 -2.753617419E+03  2.753617419E+03  0.000000000E+00  0.00000E+00  9.000E+00
       4     1     1     2   512     0  2.593290122E+02 -1.151722600E+03  2.259990898E+02  1.201995039E+03  4.609316244E-05  0.00000E+00  9.000E+00
      21     1     1     2   511   514 -2.203074633E+02  1.181290918E+03  7.652000148E+02  1.424610359E+03  0.000000000E+00  0.00000E+00  9.000E+00
      22     1     1     2     0     0 -3.902154888E+01 -2.956831774E+01 -1.935604733E+03  1.936223812E+03  0.000000000E+00  0.00000E+00  9.000E+00
#rwgt            1         189   6.8907702210579895E-005        6024     6206486           0
<rwgt>
<wgt id='central'>  0.314684930E+02 </wgt>
<wgt id='sudakovwgt'>  0.491734192E-01 </wgt>
<wgt id='scales0.50.5'>  0.407566284E+02 </wgt>
<wgt id='scales0.51.0'>  0.367452602E+02 </wgt>
<wgt id='scales1.00.5'>  0.349038204E+02 </wgt>
<wgt id='scales1.02.0'>  0.284683062E+02 </wgt>
<wgt id='scales2.01.0'>  0.272620108E+02 </wgt>
<wgt id='scales2.02.0'>  0.246628620E+02 </wgt>
</rwgt>
<scales uborns=' 0.119085853E+04'> </scales>
</event>
<event>
      5  10001  1.66891E+02  2.94733E+01  7.29735E-03  1.53576E-01
      -3    -1     0     0     0   511  0.000000000E+00  0.000000000E+00  1.138965319E+03  1.138965319E+03  0.000000000E+00  0.00000E+00  9.000E+00
       2    -1     0     0   511     0  0.000000000E+00  0.000000000E+00 -8.778764625E+02  8.778764625E+02  0.000000000E+00  0.00000E+00  9.000E+00
       2     1     1     2   513     0  1.971187673E+02 -8.513102678E+02 -3.073294773E+02  9.263025360E+02  9.344061824E-06  0.00000E+00  9.000E+00
      -3     1     1     2     0   513 -2.043195929E+02  8.553220668E+02  5.956215579E+02  1.062114577E+03  0.000000000E+00  0.00000E+00  9.000E+00
      22     1     1     2     0     0  7.200825521E+00 -4.011798979E+00 -2.720322383E+01  2.842466897E+01  5.840038640E-07  0.00000E+00  9.000E+00
#rwgt            1         170   1.3871831013172897E-004        6024     6212317           0
<rwgt>
<wgt id='central'>  0.166890605E+03 </wgt>
<wgt id='sudakovwgt'>  0.109936714E-02 </wgt>
<wgt id='scales0.50.5'>  0.209085621E+03 </wgt>
<wgt id='scales0.51.0'>  0.195957497E+03 </wgt>
<wgt id='scales1.00.5'>  0.178071821E+03 </wgt>
<wgt id='scales1.02.0'>  0.156768255E+03 </wgt>
<wgt id='scales2.01.0'>  0.143902487E+03 </wgt>
<wgt id='scales2.02.0'>  0.135174107E+03 </wgt>
</rwgt>
<scales uborns=' 0.885201695E+03'> </scales>
</event>
<event>
      4  10001  1.90753E+00  8.94427E-01  7.29735E-03  7.42097E-01
      21    -1     0     0   512   511  0.000000000E+00  0.000000000E+00  1.194712560E+03  1.194712560E+03  0.000000000E+00  0.00000E+00  9.000E+00
       1    -1     0     0   513     0  0.000000000E+00  0.000000000E+00 -3.522125519E+03  3.522125519E+03  0.000000000E+00  0.00000E+00  9.000E+00
       1     1     1     2   512     0 -1.758930274E+03  1.043736099E+03 -9.829909416E+02  2.269249202E+03  2.412626389E-05  0.00000E+00  9.000E+00
      21     1     1     2   513   511  1.758930274E+03 -1.043736099E+03 -1.344422017E+03  2.447588877E+03  4.315837288E-05  0.00000E+00  9.000E+00
#rwgt            1         186   5.1811666314487202E-004        6024     6220114           0
<rwgt>
<wgt id='central'>  0.190752573E+01 </wgt>
<wgt id='sudakovwgt'>  0.335292667E+01 </wgt>
<wgt id='scales0.50.5'>  0.266948599E+01 </wgt>
<wgt id='scales0.51.0'>  0.220710657E+01 </wgt>
<wgt id='scales1.00.5'>  0.230714941E+01 </wgt>
<wgt id='scales1.02.0'>  0.159778572E+01 </wgt>
<wgt id='scales2.01.0'>  0.166556785E+01 </wgt>
<wgt id='scales2.02.0'>  0.139511333E+01 </wgt>
</rwgt>
<scales uborns=' 0.204529234E+04'> </scales>
</event>
<event>
      5  10001  2.61456E+05  2.46898E+00  7.29735E-03  3.25149E-01
       2    -1     0     0   515     0  0.000000000E+00  0.000000000E+00  2.399859727E+03  2.399859727E+03  0.000000000E+00  0.00000E+00  9.000E+00
      21    -1     0     0   514   512  0.000000000E+00  0.000000000E+00 -3.587520327E+01  3.587520327E+01  0.000000000E+00  0.00000E+00  9.000E+00
       2     1     1     2   514     0  3.255247960E+01 -2.508252835E+02  5.945908442E+02  6.461511114E+02  1.525878906E-05  0.00000E+00  9.000E+00
      21     1     1     2   515   512 -3.348234944E+01  2.531124674E+02  1.605731952E+03  1.625903469E+03  3.051757812E-05  0.00000E+00  9.000E+00
      22     1     1     2     0     0  9.298698415E-01 -2.287183907E+00  1.636617276E+02  1.636803499E+02  1.907348633E-06  0.00000E+00  9.000E+00
#rwgt            1         182   4.1324910199031107E-003        6024     6222147           0
<rwgt>
<wgt id='central'>  0.261456410E+06 </wgt>
<wgt id='sudakovwgt'>  0.218476730E+00 </wgt>
<wgt id='scales0.50.5'>  0.327111720E+06 </wgt>
<wgt id='scales0.51.0'>  0.315884248E+06 </wgt>
<wgt id='scales1.00.5'>  0.270748930E+06 </wgt>
<wgt id='scales1.02.0'>  0.251533357E+06 </wgt>
<wgt id='scales2.01.0'>  0.220123045E+06 </wgt>
<wgt id='scales2.02.0'>  0.211769049E+06 </wgt>
</rwgt>
<scales uborns=' 0.254120671E+03'> </scales>
</event>
<event>
      5  10001  1.65101E+01  1.05060E+02  7.29735E-03  1.22871E-01
       2    -1     0     0   512     0  0.000000000E+00  0.000000000E+00  1.124787640E+03  1.124787640E+03  0.000000000E+00  0.00000E+00  9.000E+00
       2    -1     0     0   511     0  0.000000000E+00  0.000000000E+00 -2.395784483E+03  2.395784483E+03  0.000000000E+00  0.00000E+00  9.000E+00
       2     1     1     2   511     0 -1.080699738E+03 -7.875637498E+02  3.799139223E+02  1.390145019E+03  1.206313194E-05  0.00000E+00  9.000E+00
       2     1     1     2   512     0  7.159839754E+02  5.262605005E+02 -1.211450790E+03  1.502396813E+03  2.157918644E-05  0.00000E+00  9.000E+00
      22     1     1     2     0     0  3.647157628E+02  2.613032493E+02 -4.394599756E+02  6.280302906E+02  5.394796609E-06  0.00000E+00  9.000E+00
#rwgt            1          97   3.1976091661720671E-003        6024     6229527           0
<rwgt>
<wgt id='central'>  0.165100660E+02 </wgt>
<wgt id='sudakovwgt'>  0.446199644E-02 </wgt>
<wgt id='scales0.50.5'>  0.212380801E+02 </wgt>
<wgt id='scales0.51.0'>  0.192381517E+02 </wgt>
<wgt id='scales1.00.5'>  0.182264300E+02 </wgt>
<wgt id='scales1.02.0'>  0.150491739E+02 </wgt>
<wgt id='scales2.01.0'>  0.143288334E+02 </wgt>
<wgt id='scales2.02.0'>  0.130609207E+02 </wgt>
</rwgt>
<scales uborns=' 0.134033845E+04'> </scales>
</event>
<event>
      5  10001  4.01693E+04  4.45088E+02  7.29735E-03  1.00309E-01
       2    -1     0     0   511     0  0.000000000E+00  0.000000000E+00  1.455048387E+02  1.455048387E+02  0.000000000E+00  0.00000E+00  9.000E+00
       2    -1     0     0   513     0  0.000000000E+00  0.000000000E+00 -9.886908801E+02  9.886908801E+02  0.000000000E+00  0.00000E+00  9.000E+00
       2     1     1     2   513     0  1.997192540E+02  3.581203880E+01 -1.140474436E+02  2.327597515E+02  0.000000000E+00  0.00000E+00  9.000E+00
       2     1     1     2   511     0 -7.506263618E+01  4.387893395E+01 -7.473286765E+02  7.523695308E+02  0.000000000E+00  0.00000E+00  9.000E+00
      22     1     1     2     0     0 -1.246566178E+02 -7.969097275E+01  1.819007861E+01  1.490664364E+02  1.327458468E-06  0.00000E+00  9.000E+00
#rwgt            1          97   2.6139713178787398E-004        6024     6245237           0
<rwgt>
<wgt id='central'>  0.401693436E+05 </wgt>
<wgt id='sudakovwgt'>  0.430319118E-03 </wgt>
<wgt id='scales0.50.5'>  0.488816796E+05 </wgt>
<wgt id='scales0.51.0'>  0.481387633E+05 </wgt>
<wgt id='scales1.00.5'>  0.407892251E+05 </wgt>
<wgt id='scales1.02.0'>  0.394936892E+05 </wgt>
<wgt id='scales2.01.0'>  0.340470529E+05 </wgt>
<wgt id='scales2.02.0'>  0.334744127E+05 </wgt>
</rwgt>
<scales uborns=' 0.347844683E+03'> </scales>
</event>
<event>
      5  10001  3.90216E+02  1.26586E+02  7.29735E-03  1.19391E-01
      21    -1     0     0   512   513  0.000000000E+00  0.000000000E+00  5.396116508E+02  5.396116508E+02  0.000000000E+00  0.00000E+00  9.000E+00
       2    -1     0     0   514     0  0.000000000E+00  0.000000000E+00 -1.092987784E+03  1.092987784E+03  0.000000000E+00  0.00000E+00  9.000E+00
      22     1     1     2     0     0 -3.188733258E+01  7.088885774E+01 -2.717099726E+01  8.234254807E+01  8.920806376E-07  0.00000E+00  9.000E+00
      21     1     1     2   514   513  4.041508437E+02 -6.473794432E+02 -3.618398619E+02  8.446100483E+02  1.477425898E-05  0.00000E+00  9.000E+00
       2     1     1     2   512     0 -3.722635111E+02  5.764905855E+02 -1.643652737E+02  7.056468381E+02  1.849243110E-05  0.00000E+00  9.000E+00
#rwgt            1         187   3.5332548377777942E-003        6024     6245659           0
<rwgt>
<wgt id='central'>  0.390215921E+03 </wgt>
<wgt id='sudakovwgt'>  0.710493699E-03 </wgt>
<wgt id='scales0.50.5'>  0.503222309E+03 </wgt>
<wgt id='scales0.51.0'>  0.459511720E+03 </wgt>
<wgt id='scales1.00.5'>  0.427334903E+03 </wgt>
<wgt id='scales1.02.0'>  0.358155345E+03 </wgt>
<wgt id='scales2.01.0'>  0.335637377E+03 </wgt>
<wgt id='scales2.02.0'>  0.308060973E+03 </wgt>
</rwgt>
<scales uborns=' 0.763760024E+03'> </scales>
</event>
<event>
      5  10001  2.56338E+01  7.66775E+00  7.29735E-03  2.10108E-01
      21    -1     0     0   511   515  0.000000000E+00  0.000000000E+00  1.416239783E+03  1.416239783E+03  0.000000000E+00  0.00000E+00  9.000E+00
       1    -1     0     0   512     0  0.000000000E+00  0.000000000E+00 -1.094954054E+03  1.094954054E+03  0.000000000E+00  0.00000E+00  9.000E+00
       1     1     1     2   511     0 -3.520867889E+02  1.184720922E+03  2.098586770E+02  1.253622524E+03  2.544720471E-05  0.00000E+00  9.000E+00
      21     1     1     2   512   515  3.448662878E+02 -1.187301368E+03  1.242817623E+02  1.242603417E+03  4.644697442E-05  0.00000E+00  9.000E+00
      22     1     1     2     0     0  7.220501089E+00  2.580446651E+00 -1.285471019E+01  1.496789615E+01  1.685873940E-07  0.00000E+00  9.000E+00
#rwgt            1         186   1.0453692366624698E-003        6024     6246041           0
<rwgt>
<wgt id='central'>  0.256338011E+02 </wgt>
<wgt id='sudakovwgt'>  0.270457154E-01 </wgt>
<wgt id='scales0.50.5'>  0.342144831E+02 </wgt>
<wgt id='scales0.51.0'>  0.299121593E+02 </wgt>
<wgt id='scales1.00.5'>  0.293207591E+02 </wgt>
<wgt id='scales1.02.0'>  0.226152194E+02 </wgt>
<wgt id='scales2.01.0'>  0.222199451E+02 </wgt>
<wgt id='scales2.02.0'>  0.196033726E+02 </wgt>
</rwgt>
<scales uborns=' 0.123614655E+04'> </scales>
</event>
<event>
      5  10001  4.61028E+05  5.37436E+00  7.29735E-03  2.33165E-01
      21    -1     0     0   514   512  0.000000000E+00  0.000000000E+00  1.291290529E+02  1.291290529E+02  0.000000000E+00  0.00000E+00  9.000E+00
       2    -1     0     0   512     0  0.000000000E+00  0.000000000E+00 -1.321993521E+03  1.321993521E+03  0.000000000E+00  0.00000E+00  9.000E+00
       2     1     1     2   513     0  9.484765033E+00 -2.290960794E+02 -8.961471036E+02  9.250160029E+02  1.078959322E-05  0.00000E+00  9.000E+00
      21     1     1     2   514   513 -1.358514352E+01  2.325703596E+02 -3.655543410E+00  2.329954749E+02  4.476106432E-06  0.00000E+00  9.000E+00
      22     1     1     2     0     0  4.100378483E+00 -3.474280242E+00 -2.930618207E+02  2.931110958E+02  0.000000000E+00  0.00000E+00  9.000E+00
#rwgt            1         187   1.1213026811582098E-002        6024     6246603           0
<rwgt>
<wgt id='central'>  0.461028299E+06 </wgt>
<wgt id='sudakovwgt'>  0.658843534E-01 </wgt>
<wgt id='scales0.50.5'>  0.579858353E+06 </wgt>
<wgt id='scales0.51.0'>  0.558455203E+06 </wgt>
<wgt id='scales1.00.5'>  0.478697191E+06 </wgt>
<wgt id='scales1.02.0'>  0.443023930E+06 </wgt>
<wgt id='scales2.01.0'>  0.387314403E+06 </wgt>
<wgt id='scales2.02.0'>  0.372188996E+06 </wgt>
</rwgt>
<scales uborns=' 0.231118309E+03'> </scales>
</event>
<event>
      5  10001  4.64915E+03  8.39637E+01  7.29735E-03  1.27341E-01
       2    -1     0     0   513     0  0.000000000E+00  0.000000000E+00  1.948006930E+03  1.948006930E+03  0.000000000E+00  0.00000E+00  9.000E+00
      21    -1     0     0   511   515  0.000000000E+00  0.000000000E+00 -1.731343014E+02  1.731343014E+02  0.000000000E+00  0.00000E+00  9.000E+00
       2     1     1     2   511     0 -3.426831259E+02 -3.447442568E+02  6.498725383E+02  8.115507645E+02  0.000000000E+00  0.00000E+00  9.000E+00
      21     1     1     2   513   515  3.040940525E+02  4.193149491E+02  6.698308783E+02  8.467417699E+02  1.078959322E-05  0.00000E+00  9.000E+00
      22     1     1     2     0     0  3.858907347E+01 -7.457069225E+01  4.551692120E+02  4.628486969E+02  0.000000000E+00  0.00000E+00  9.000E+00
#rwgt            1         182   8.5752810155010108E-003        6024     6248078           0
<rwgt>
<wgt id='central'>  0.464914673E+04 </wgt>
<wgt id='sudakovwgt'>  0.227803975E-01 </wgt>
<wgt id='scales0.50.5'>  0.589337630E+04 </wgt>
<wgt id='scales0.51.0'>  0.552408076E+04 </wgt>
<wgt id='scales1.00.5'>  0.495995471E+04 </wgt>
<wgt id='scales1.02.0'>  0.436441316E+04 </wgt>
<wgt id='scales2.01.0'>  0.396879046E+04 </wgt>
<wgt id='scales2.02.0'>  0.372572219E+04 </wgt>
</rwgt>
<scales uborns=' 0.500272550E+03'> </scales>
</event>
<event>
      5  10001  1.42090E+04  2.62393E+02  7.29735E-03  1.07517E-01
      21    -1     0     0   512   511  0.000000000E+00  0.000000000E+00  1.219031515E+03  1.219031515E+03  0.000000000E+00  0.00000E+00  9.000E+00
       2    -1     0     0   514     0  0.000000000E+00  0.000000000E+00 -1.018376068E+03  1.018376068E+03  0.000000000E+00  0.00000E+00  9.000E+00
      22     1     1     2     0     0 -4.005103766E+01  4.811395415E+01 -1.229579662E+02  1.379771708E+02  2.336015456E-06  0.00000E+00  9.000E+00
      21     1     1     2   514   511  3.966985633E+02 -1.162665686E+02  1.136385357E+03  1.209239159E+03  0.000000000E+00  0.00000E+00  9.000E+00
       2     1     1     2   512     0 -3.566475256E+02  6.815261443E+01 -8.127719431E+02  8.901912535E+02  1.078959322E-05  0.00000E+00  9.000E+00
#rwgt            1         187   7.3493401475513810E-003        6024     6248769           0
<rwgt>
<wgt id='central'>  0.142090257E+05 </wgt>
<wgt id='sudakovwgt'>  0.233739303E-02 </wgt>
<wgt id='scales0.50.5'>  0.193138907E+05 </wgt>
<wgt id='scales0.51.0'>  0.169563229E+05 </wgt>
<wgt id='scales1.00.5'>  0.161845864E+05 </wgt>
<wgt id='scales1.02.0'>  0.125927488E+05 </wgt>
<wgt id='scales2.01.0'>  0.120857717E+05 </wgt>
<wgt id='scales2.02.0'>  0.107110343E+05 </wgt>
</rwgt>
<scales uborns=' 0.414274289E+03'> </scales>
</event>
<event>
      5  10001  2.73701E+02  8.79083E+00  7.29735E-03  2.02457E-01
       1    -1     0     0   513     0  0.000000000E+00  0.000000000E+00  2.205719820E+03  2.205719820E+03  0.000000000E+00  0.00000E+00  9.000E+00
       5    -1     0     0   512     0  0.000000000E+00  0.000000000E+00 -3.044563861E+02  3.044563861E+02  0.000000000E+00  0.00000E+00  9.000E+00
       1     1     1     2   512     0 -3.837922854E+02  7.151632754E+02  7.824214867E+02  1.127359043E+03  1.868812365E-05  0.00000E+00  9.000E+00
       5     1     1     2   513     0  3.663605294E+02 -6.823490236E+02  1.080773555E+03  1.329620888E+03  0.000000000E+00  0.00000E+00  9.000E+00
      22     1     1     2     0     0  1.743175599E+01 -3.281425187E+01  3.806839201E+01  5.319627536E+01  1.261592536E-06  0.00000E+00  9.000E+00
#rwgt            1         111   2.3192978922387081E-005        6024     6249172           0
<rwgt>
<wgt id='central'>  0.273701042E+03 </wgt>
<wgt id='sudakovwgt'>  0.419569576E-01 </wgt>
<wgt id='scales0.50.5'>  0.331949794E+03 </wgt>
<wgt id='scales0.51.0'>  0.321911787E+03 </wgt>
<wgt id='scales1.00.5'>  0.282235675E+03 </wgt>
<wgt id='scales1.02.0'>  0.263700501E+03 </wgt>
<wgt id='scales2.01.0'>  0.235662958E+03 </wgt>
<wgt id='scales2.02.0'>  0.227052294E+03 </wgt>
</rwgt>
<scales uborns=' 0.812127330E+03'> </scales>
</event>
<event>
      5  10001  1.88173E+01  4.51881E+01  7.29735E-03  1.41630E-01
       2    -1     0     0   511     0  0.000000000E+00  0.000000000E+00  2.029177242E+03  2.029177242E+03  0.000000000E+00  0.00000E+00  9.000E+00
      -2    -1     0     0     0   511  0.000000000E+00  0.000000000E+00 -1.010632502E+03  1.010632502E+03  0.000000000E+00  0.00000E+00  9.000E+00
       2     1     1     2   513     0 -8.737920076E+02  9.481740552E+02  8.467027080E+02  1.542547240E+03  5.060767808E-05  0.00000E+00  9.000E+00
      -2     1     1     2     0   513  9.175485655E+02 -9.594582231E+02  8.309015640E+00  1.327601029E+03  1.749738992E-05  0.00000E+00  9.000E+00
      22     1     1     2     0     0 -4.375655792E+01  1.128416789E+01  1.635330161E+02  1.696614751E+02  3.303624740E-06  0.00000E+00  9.000E+00
#rwgt            1          47   3.7756291131181812E-004        6024     6259782           0
<rwgt>
<wgt id='central'>  0.188173288E+02 </wgt>
<wgt id='sudakovwgt'>  0.174271295E+00 </wgt>
<wgt id='scales0.50.5'>  0.241455943E+02 </wgt>
<wgt id='scales0.51.0'>  0.219358967E+02 </wgt>
<wgt id='scales1.00.5'>  0.207128479E+02 </wgt>
<wgt id='scales1.02.0'>  0.171933741E+02 </wgt>
<wgt id='scales2.01.0'>  0.163252799E+02 </wgt>
<wgt id='scales2.02.0'>  0.149164144E+02 </wgt>
</rwgt>
<scales uborns=' 0.130830350E+04'> </scales>
</event>
<event>
      5  10001  1.20248E+02  9.56557E+02  7.29735E-03  9.14565E-02
       1    -1     0     0   511     0  0.000000000E+00  0.000000000E+00  1.330444654E+03  1.330444654E+03  0.000000000E+00  0.00000E+00  9.000E+00
       2    -1     0     0   512     0  0.000000000E+00  0.000000000E+00 -7.781259264E+02  7.781259264E+02  0.000000000E+00  0.00000E+00  9.000E+00
       1     1     1     2   512     0 -6.066071370E+02 -6.211699253E+02  6.350190073E+02  1.075673479E+03  1.868812365E-05  0.00000E+00  9.000E+00
       2     1     1     2   511     0 -6.136682694E+01  2.602845497E+02  1.256231788E+01  2.677157935E+02  5.023791195E-06  0.00000E+00  9.000E+00
      22     1     1     2     0     0  6.679739639E+02  3.608853756E+02 -9.526259757E+01  7.651813075E+02  2.256805337E-05  0.00000E+00  9.000E+00
#rwgt            1          96   1.1912633305765912E-003        6024     6267428           0
<rwgt>
<wgt id='central'>  0.120248434E+03 </wgt>
<wgt id='sudakovwgt'>  0.160039554E-04 </wgt>
<wgt id='scales0.50.5'>  0.151559743E+03 </wgt>
<wgt id='scales0.51.0'>  0.141035197E+03 </wgt>
<wgt id='scales1.00.5'>  0.129221331E+03 </wgt>
<wgt id='scales1.02.0'>  0.112343583E+03 </wgt>
<wgt id='scales2.01.0'>  0.103781603E+03 </wgt>
<wgt id='scales2.02.0'>  0.969595932E+02 </wgt>
</rwgt>
<scales uborns=' 0.937559651E+03'> </scales>
</event>
<event>
      5  10001  1.29400E+00  2.00011E+01  7.29735E-03  1.66367E-01
      21    -1     0     0   513   512  0.000000000E+00  0.000000000E+00  2.313108019E+03  2.313108019E+03  0.000000000E+00  0.00000E+00  9.000E+00
       2    -1     0     0   514     0  0.000000000E+00  0.000000000E+00 -2.288459103E+03  2.288459103E+03  0.000000000E+00  0.00000E+00  9.000E+00
       2     1     1     2   513     0 -4.230735500E+02  2.111003888E+03 -5.454269896E+02  2.220995102E+03  7.629394531E-06  0.00000E+00  9.000E+00
      21     1     1     2   514   512  4.316074833E+02 -2.178907839E+03  6.071626095E+02  2.302731167E+03  3.236877966E-05  0.00000E+00  9.000E+00
      22     1     1     2     0     0 -8.533933285E+00  6.790395178E+01 -3.708670395E+01  7.784085235E+01  1.907348633E-06  0.00000E+00  9.000E+00
#rwgt            1         187   3.8610140241673832E-003        6024     6268193           0
<rwgt>
<wgt id='central'>  0.129399731E+01 </wgt>
<wgt id='sudakovwgt'>  0.150982086E-02 </wgt>
<wgt id='scales0.50.5'>  0.179429519E+01 </wgt>
<wgt id='scales0.51.0'>  0.149526445E+01 </wgt>
<wgt id='scales1.00.5'>  0.155278084E+01 </wgt>
<wgt id='scales1.02.0'>  0.109252054E+01 </wgt>
<wgt id='scales2.01.0'>  0.113113754E+01 </wgt>
<wgt id='scales2.02.0'>  0.955016225E+00 </wgt>
</rwgt>
<scales uborns=' 0.222244046E+04'> </scales>
</event>
<event>
      5  10001  1.24818E+02  1.61795E+03  7.29735E-03  8.62408E-02
       5    -1     0     0   513     0  0.000000000E+00  0.000000000E+00  4.344441183E+02  4.344441183E+02  0.000000000E+00  0.00000E+00  9.000E+00
       2    -1     0     0   511     0  0.000000000E+00  0.000000000E+00 -2.018289484E+03  2.018289484E+03  0.000000000E+00  0.00000E+00  9.000E+00
      22     1     1     2     0     0  2.855293201E+00  1.672354105E+02 -9.754365784E+02  9.896728518E+02  1.525878906E-05  0.00000E+00  9.000E+00
       2     1     1     2   513     0 -2.987649852E+02  4.580407216E+02 -5.389730078E+02  7.678240177E+02  1.705984480E-05  0.00000E+00  9.000E+00
       5     1     1     2   511     0  2.959096920E+02 -6.252761321E+02 -6.943577947E+01  6.952367328E+02  2.573153985E-05  0.00000E+00  9.000E+00
#rwgt            1         100   1.0561106345445427E-004        6024     6269656           0
<rwgt>
<wgt id='central'>  0.124818231E+03 </wgt>
<wgt id='sudakovwgt'>  0.379117740E-01 </wgt>
<wgt id='scales0.50.5'>  0.149471719E+03 </wgt>
<wgt id='scales0.51.0'>  0.146413529E+03 </wgt>
<wgt id='scales1.00.5'>  0.127425117E+03 </wgt>
<wgt id='scales1.02.0'>  0.121459143E+03 </wgt>
<wgt id='scales2.01.0'>  0.107714347E+03 </wgt>
<wgt id='scales2.02.0'>  0.104815750E+03 </wgt>
</rwgt>
<scales uborns=' 0.931433362E+03'> </scales>
</event>
<event>
      5  10001  1.42238E+01  1.70858E+01  7.29735E-03  1.72217E-01
       2    -1     0     0   512     0  0.000000000E+00  0.000000000E+00  1.876434810E+03  1.876434810E+03  0.000000000E+00  0.00000E+00  9.000E+00
       1    -1     0     0   511     0  0.000000000E+00  0.000000000E+00 -1.181932865E+03  1.181932865E+03  0.000000000E+00  0.00000E+00  9.000E+00
       2     1     1     2   511     0 -1.866737481E+02 -1.369836803E+03  4.591602112E+02  1.456752571E+03  9.344061824E-06  0.00000E+00  9.000E+00
       1     1     1     2   512     0  1.998328398E+02  1.358938966E+03  7.943735157E+00  1.373576128E+03  2.405281909E-05  0.00000E+00  9.000E+00
      22     1     1     2     0     0 -1.315909163E+01  1.089783699E+01  2.273979983E+02  2.280389751E+02  2.697398305E-06  0.00000E+00  9.000E+00
#rwgt            1          92   1.9016036127854029E-003        6024     6269930           0
<rwgt>
<wgt id='central'>  0.142237905E+02 </wgt>
<wgt id='sudakovwgt'>  0.131009745E+00 </wgt>
<wgt id='scales0.50.5'>  0.181478023E+02 </wgt>
<wgt id='scales0.51.0'>  0.165660620E+02 </wgt>
<wgt id='scales1.00.5'>  0.155818993E+02 </wgt>
<wgt id='scales1.02.0'>  0.130547425E+02 </wgt>
<wgt id='scales2.01.0'>  0.123497032E+02 </wgt>
<wgt id='scales2.02.0'>  0.113346781E+02 </wgt>
</rwgt>
<scales uborns=' 0.137799914E+04'> </scales>
</event>
<event>
      5  10001  1.14640E+08  1.27351E+02  7.29735E-03  1.19282E-01
       5    -1     0     0   511     0  0.000000000E+00  0.000000000E+00  2.472051526E+01  2.472051526E+01  0.000000000E+00  0.00000E+00  9.000E+00
       1    -1     0     0   513     0  0.000000000E+00  0.000000000E+00 -3.476788130E+02  3.476788130E+02  0.000000000E+00  0.00000E+00  9.000E+00
      22     1     1     2     0     0  1.416747060E+00  1.494016288E+00 -3.187435200E+01  3.194078227E+01  4.768371582E-07  0.00000E+00  9.000E+00
       1     1     1     2   511     0 -8.754065874E+01 -6.658860321E+00 -1.753856263E+02  1.961321628E+02  1.907348633E-06  0.00000E+00  9.000E+00
       5     1     1     2   513     0  8.612391168E+01  5.164844032E+00 -1.156983194E+02  1.443263832E+02  1.907348633E-06  0.00000E+00  9.000E+00
#rwgt            1          95   2.3990112173126723E-005        6024     6289868           0
<rwgt>
<wgt id='central'>  0.114639866E+09 </wgt>
<wgt id='sudakovwgt'>  0.214996294E-01 </wgt>
<wgt id='scales0.50.5'>  0.116419372E+09 </wgt>
<wgt id='scales0.51.0'>  0.143063363E+09 </wgt>
<wgt id='scales1.00.5'>  0.932895500E+08 </wgt>
<wgt id='scales1.02.0'>  0.133123470E+09 </wgt>
<wgt id='scales2.01.0'>  0.940208960E+08 </wgt>
<wgt id='scales2.02.0'>  0.109179936E+09 </wgt>
</rwgt>
<scales uborns=' 0.920359573E+02'> </scales>
</event>
<event>
      5  10001  1.89362E+03  6.45431E+01  7.29735E-03  1.33031E-01
       4    -1     0     0   511     0  0.000000000E+00  0.000000000E+00  2.799074434E+03  2.799074434E+03  0.000000000E+00  0.00000E+00  9.000E+00
      -1    -1     0     0     0   511  0.000000000E+00  0.000000000E+00 -2.641509450E+02  2.641509450E+02  0.000000000E+00  0.00000E+00  9.000E+00
      22     1     1     2     0     0  1.898617923E+02  3.411167462E+01  7.156125521E+02  7.411561450E+02  1.321449896E-05  0.00000E+00  9.000E+00
      -1     1     1     2     0   512 -5.768099024E+02 -7.966608590E+01  1.409828053E+02  5.991097563E+02  6.325959759E-06  0.00000E+00  9.000E+00
       4     1     1     2   512     0  3.869481101E+02  4.555441129E+01  1.678328131E+03  1.722959477E+03  0.000000000E+00  0.00000E+00  9.000E+00
#rwgt            1         153   1.4391703966096076E-005        6024     6289908           0
<rwgt>
<wgt id='central'>  0.189362312E+04 </wgt>
<wgt id='sudakovwgt'>  0.216333631E-02 </wgt>
<wgt id='scales0.50.5'>  0.242610269E+04 </wgt>
<wgt id='scales0.51.0'>  0.224246890E+04 </wgt>
<wgt id='scales1.00.5'>  0.204868686E+04 </wgt>
<wgt id='scales1.02.0'>  0.175554303E+04 </wgt>
<wgt id='scales2.01.0'>  0.162105411E+04 </wgt>
<wgt id='scales2.02.0'>  0.150285181E+04 </wgt>
</rwgt>
<scales uborns=' 0.582651385E+03'> </scales>
</event>
<event>
      5  10001  5.85362E+05  1.77614E+01  7.29735E-03  1.70738E-01
       2    -1     0     0   512     0  0.000000000E+00  0.000000000E+00  2.399139265E+03  2.399139265E+03  0.000000000E+00  0.00000E+00  9.000E+00
      21    -1     0     0   513   511  0.000000000E+00  0.000000000E+00 -4.302770137E+02  4.302770137E+02  0.000000000E+00  0.00000E+00  9.000E+00
       2     1     1     2   513     0  2.109627111E+02  3.199267766E+01  1.610864528E+03  1.624934868E+03  2.157918644E-05  0.00000E+00  9.000E+00
      21     1     1     2   512   511 -2.276427519E+02 -3.809536507E+01 -3.916619068E+02  4.546114039E+02  5.394796609E-06  0.00000E+00  9.000E+00
      22     1     1     2     0     0  1.668004077E+01  6.102687403E+00  7.496596306E+02  7.498700076E+02  1.078959322E-05  0.00000E+00  9.000E+00
#rwgt            1         182   8.3601392265694081E-003        6024     6290448           0
<rwgt>
<wgt id='central'>  0.585361978E+06 </wgt>
<wgt id='sudakovwgt'>  0.337592100E-01 </wgt>
<wgt id='scales0.50.5'>  0.794287068E+06 </wgt>
<wgt id='scales0.51.0'>  0.709857916E+06 </wgt>
<wgt id='scales1.00.5'>  0.654983845E+06 </wgt>
<wgt id='scales1.02.0'>  0.526839904E+06 </wgt>
<wgt id='scales2.01.0'>  0.491317414E+06 </wgt>
<wgt id='scales2.02.0'>  0.442197511E+06 </wgt>
</rwgt>
<scales uborns=' 0.222073162E+03'> </scales>
</event>
<event>
      5  10001  5.83796E+01  1.15644E+03  7.29735E-03  8.95011E-02
       2    -1     0     0   514     0  0.000000000E+00  0.000000000E+00  5.846399385E+02  5.846399385E+02  0.000000000E+00  0.00000E+00  9.000E+00
       2    -1     0     0   513     0  0.000000000E+00  0.000000000E+00 -2.771702603E+03  2.771702603E+03  0.000000000E+00  0.00000E+00  9.000E+00
       2     1     1     2   514     0  6.590987367E+02 -5.424617510E+02 -1.611567509E+03  1.823684658E+03  3.051757812E-05  0.00000E+00  9.000E+00
       2     1     1     2   513     0 -1.309650803E+01  1.481668115E+02  3.243657171E+02  3.568445613E+02  5.394796609E-06  0.00000E+00  9.000E+00
      22     1     1     2     0     0 -6.460022287E+02  3.942949396E+02 -8.998608730E+02  1.175813323E+03  2.157918644E-05  0.00000E+00  9.000E+00
#rwgt            1          97   1.7737375674352976E-003        6024     6293854           0
<rwgt>
<wgt id='central'>  0.583796156E+02 </wgt>
<wgt id='sudakovwgt'>  0.466034985E-03 </wgt>
<wgt id='scales0.50.5'>  0.749185192E+02 </wgt>
<wgt id='scales0.51.0'>  0.683073174E+02 </wgt>
<wgt id='scales1.00.5'>  0.640299363E+02 </wgt>
<wgt id='scales1.02.0'>  0.535317719E+02 </wgt>
<wgt id='scales2.01.0'>  0.504884043E+02 </wgt>
<wgt id='scales2.02.0'>  0.462958591E+02 </wgt>
</rwgt>
<scales uborns=' 0.106555421E+04'> </scales>
</event>
<event>
      5  10001  5.28707E+02  1.45166E+01  7.29735E-03  1.78734E-01
      21    -1     0     0   511   512  0.000000000E+00  0.000000000E+00  2.091076024E+03  2.091076024E+03  0.000000000E+00  0.00000E+00  9.000E+00
      21    -1     0     0   512   514  0.000000000E+00  0.000000000E+00 -3.946866272E+02  3.946866272E+02  0.000000000E+00  0.00000E+00  9.000E+00
       4     1     1     2   511     0 -1.954895587E+02 -6.971464930E+02  1.595882492E+03  1.752446955E+03  0.000000000E+00  0.00000E+00  9.000E+00
      -4     1     1     2     0   514  1.770365401E+02  6.523457828E+02  7.984185745E+01  6.806406387E+02  7.688768147E-06  0.00000E+00  9.000E+00
      22     1     1     2     0     0  1.845301863E+01  4.480071024E+01  2.066504710E+01  5.267505772E+01  2.384185791E-07  0.00000E+00  9.000E+00
#rwgt            1         204   2.5482823663989611E-005        6024     6294424           0
<rwgt>
<wgt id='central'>  0.528707046E+03 </wgt>
<wgt id='sudakovwgt'>  0.244604569E-02 </wgt>
<wgt id='scales0.50.5'>  0.742722013E+03 </wgt>
<wgt id='scales0.51.0'>  0.623255401E+03 </wgt>
<wgt id='scales1.00.5'>  0.630050420E+03 </wgt>
<wgt id='scales1.02.0'>  0.449183606E+03 </wgt>
<wgt id='scales2.01.0'>  0.454351198E+03 </wgt>
<wgt id='scales2.02.0'>  0.386011741E+03 </wgt>
</rwgt>
<scales uborns=' 0.724787922E+03'> </scales>
</event>
<event>
      5  10001  2.19806E+05  4.46867E+01  7.29735E-03  1.41918E-01
       2    -1     0     0   514     0  0.000000000E+00  0.000000000E+00  9.601727878E+02  9.601727878E+02  0.000000000E+00  0.00000E+00  9.000E+00
      21    -1     0     0   513   511  0.000000000E+00  0.000000000E+00 -7.414561211E+01  7.414561211E+01  0.000000000E+00  0.00000E+00  9.000E+00
      22     1     1     2     0     0 -7.249340365E+01  5.525442001E+01  1.655017330E+02  1.889422349E+02  0.000000000E+00  0.00000E+00  9.000E+00
      21     1     1     2   514   511  2.244032457E+02 -1.326107057E+02  3.400657082E+02  4.284706546E+02  5.394796609E-06  0.00000E+00  9.000E+00
       2     1     1     2   513     0 -1.519098421E+02  7.735628568E+01  3.804597344E+02  4.169055104E+02  7.629394531E-06  0.00000E+00  9.000E+00
#rwgt            1         182   7.9282072779987538E-003        6024     6296938           0
<rwgt>
<wgt id='central'>  0.219806304E+06 </wgt>
<wgt id='sudakovwgt'>  0.760325749E-03 </wgt>
<wgt id='scales0.50.5'>  0.269334587E+06 </wgt>
<wgt id='scales0.51.0'>  0.265355952E+06 </wgt>
<wgt id='scales1.00.5'>  0.223101679E+06 </wgt>
<wgt id='scales1.02.0'>  0.215500971E+06 </wgt>
<wgt id='scales2.01.0'>  0.185176803E+06 </wgt>
<wgt id='scales2.02.0'>  0.181550007E+06 </wgt>
</rwgt>
<scales uborns=' 0.261608617E+03'> </scales>
</event>
<event>
      5  10001  4.46707E+06  2.00300E+00  7.29735E-03  3.62767E-01
      21    -1     0     0   513   515  0.000000000E+00  0.000000000E+00  2.257389204E+01  2.257389204E+01  0.000000000E+00  0.00000E+00  9.000E+00
       1    -1     0     0   515     0  0.000000000E+00  0.000000000E+00 -1.937248271E+03  1.937248271E+03  0.000000000E+00  0.00000E+00  9.000E+00
       1     1     1     2   512     0 -1.476284733E+02  5.808887658E+01 -1.175730932E+03  1.186385986E+03  3.411968960E-05  0.00000E+00  9.000E+00
      21     1     1     2   513   512  1.473371711E+02 -5.610717005E+01 -3.431206454E+02  3.776083075E+02  6.607249480E-06  0.00000E+00  9.000E+00
      22     1     1     2     0     0  2.913022034E-01 -1.981706534E+00 -3.958228016E+02  3.958278695E+02  5.394796609E-06  0.00000E+00  9.000E+00
#rwgt            1         186   8.2836389879161806E-003        6024     6297843           0
<rwgt>
<wgt id='central'>  0.446707453E+07 </wgt>
<wgt id='sudakovwgt'>  0.243520121E-01 </wgt>
<wgt id='scales0.50.5'>  0.549038944E+07 </wgt>
<wgt id='scales0.51.0'>  0.547205788E+07 </wgt>
<wgt id='scales1.00.5'>  0.448203482E+07 </wgt>
<wgt id='scales1.02.0'>  0.441263992E+07 </wgt>
<wgt id='scales2.01.0'>  0.371866394E+07 </wgt>
<wgt id='scales2.02.0'>  0.367335300E+07 </wgt>
</rwgt>
<scales uborns=' 0.158149271E+03'> </scales>
</event>
<event>
      5  10001  6.98234E+02  2.46651E+01  7.29735E-03  1.59191E-01
      21    -1     0     0   511   514  0.000000000E+00  0.000000000E+00  1.665426763E+03  1.665426763E+03  0.000000000E+00  0.00000E+00  9.000E+00
       2    -1     0     0   512     0  0.000000000E+00  0.000000000E+00 -9.553149030E+02  9.553149030E+02  0.000000000E+00  0.00000E+00  9.000E+00
       2     1     1     2   511     0 -3.658603096E+02 -4.865325328E+02 -6.234867284E+02  8.713801536E+02  1.868812365E-05  0.00000E+00  9.000E+00
      21     1     1     2   512   514  4.091417119E+02  5.563071856E+02  1.450506578E+03  1.606500531E+03  2.157918644E-05  0.00000E+00  9.000E+00
      22     1     1     2     0     0 -4.328140229E+01 -6.977465273E+01 -1.169079893E+02  1.428609810E+02  3.814697266E-06  0.00000E+00  9.000E+00
#rwgt            1         187   3.8939978430261647E-003        6024     6298457           0
<rwgt>
<wgt id='central'>  0.698234133E+03 </wgt>
<wgt id='sudakovwgt'>  0.187272898E+00 </wgt>
<wgt id='scales0.50.5'>  0.946246743E+03 </wgt>
<wgt id='scales0.51.0'>  0.823904207E+03 </wgt>
<wgt id='scales1.00.5'>  0.801915614E+03 </wgt>
<wgt id='scales1.02.0'>  0.614018111E+03 </wgt>
<wgt id='scales2.01.0'>  0.599540803E+03 </wgt>
<wgt id='scales2.02.0'>  0.527228567E+03 </wgt>
</rwgt>
<scales uborns=' 0.690954789E+03'> </scales>
</event>
<event>
      5  10001  7.05403E+01  1.46133E+01  7.29735E-03  1.78458E-01
      -1    -1     0     0     0   513  0.000000000E+00  0.000000000E+00  2.395377299E+03  2.395377299E+03  0.000000000E+00  0.00000E+00  9.000E+00
      21    -1     0     0   511   514  0.000000000E+00  0.000000000E+00 -5.469428740E+02  5.469428740E+02  0.000000000E+00  0.00000E+00  9.000E+00
      -1     1     1     2     0   514  9.166744096E+02  4.795857175E+02  3.206536069E+02  1.083103490E+03  2.442598052E-05  0.00000E+00  9.000E+00
      21     1     1     2   511   513 -9.144906519E+02 -4.651364560E+02  1.427934142E+03  1.758306285E+03  2.157918644E-05  0.00000E+00  9.000E+00
      22     1     1     2     0     0 -2.183757699E+00 -1.444926152E+01  9.984667612E+01  1.009103993E+02  0.000000000E+00  0.00000E+00  9.000E+00
#rwgt            1         191   4.7830920830272270E-005        6024     6300017           0
<rwgt>
<wgt id='central'>  0.705402704E+02 </wgt>
<wgt id='sudakovwgt'>  0.261129928E-01 </wgt>
<wgt id='scales0.50.5'>  0.914756523E+02 </wgt>
<wgt id='scales0.51.0'>  0.825876466E+02 </wgt>
<wgt id='scales1.00.5'>  0.781317815E+02 </wgt>
<wgt id='scales1.02.0'>  0.640668472E+02 </wgt>
<wgt id='scales2.01.0'>  0.609728407E+02 </wgt>
<wgt id='scales2.02.0'>  0.553773895E+02 </wgt>
</rwgt>
<scales uborns=' 0.103024310E+04'> </scales>
</event>
<event>
      5  10001  1.24543E+01  7.16384E+02  7.29735E-03  9.46088E-02
       2    -1     0     0   512     0  0.000000000E+00  0.000000000E+00  1.137850204E+03  1.137850204E+03  0.000000000E+00  0.00000E+00  9.000E+00
       2    -1     0     0   513     0  0.000000000E+00  0.000000000E+00 -1.872360442E+03  1.872360442E+03  0.000000000E+00  0.00000E+00  9.000E+00
       2     1     1     2   512     0 -1.337727388E+03  3.069223685E+02 -7.247562588E+02  1.552091344E+03  2.157918644E-05  0.00000E+00  9.000E+00
      22     1     1     2     0     0  4.236285750E+02 -2.123193102E+02 -2.088139107E+02  5.178261372E+02  2.697398305E-06  0.00000E+00  9.000E+00
       2     1     1     2   513     0  9.140988133E+02 -9.460305827E+01  1.990599321E+02  9.402931647E+02  1.375408659E-05  0.00000E+00  9.000E+00
#rwgt            1          97   2.5696685849806501E-003        6024     6300378           0
<rwgt>
<wgt id='central'>  0.124543141E+02 </wgt>
<wgt id='sudakovwgt'>  0.950983225E-03 </wgt>
<wgt id='scales0.50.5'>  0.157979795E+02 </wgt>
<wgt id='scales0.51.0'>  0.144989286E+02 </wgt>
<wgt id='scales1.00.5'>  0.135701597E+02 </wgt>
<wgt id='scales1.02.0'>  0.114889747E+02 </wgt>
<wgt id='scales2.01.0'>  0.108173380E+02 </wgt>
<wgt id='scales2.02.0'>  0.997889268E+01 </wgt>
</rwgt>
<scales uborns=' 0.141265100E+04'> </scales>
</event>
<event>
      5  10001  2.01260E+02  7.24589E+01  7.29735E-03  1.30466E-01
       1    -1     0     0   512     0  0.000000000E+00  0.000000000E+00  2.205164012E+03  2.205164012E+03  0.000000000E+00  0.00000E+00  9.000E+00
       2    -1     0     0   511     0  0.000000000E+00  0.000000000E+00 -6.415715205E+02  6.415715205E+02  0.000000000E+00  0.00000E+00  9.000E+00
       1     1     1     2   511     0  1.745331389E+02  8.383632693E+02  1.768344824E+03  1.964779429E+03  3.737624730E-05  0.00000E+00  9.000E+00
       2     1     1     2   512     0 -6.640042387E+01 -2.928340152E+02 -4.743914453E+01  3.039921860E+02  1.290106703E-05  0.00000E+00  9.000E+00
      22     1     1     2     0     0 -1.081327150E+02 -5.455292541E+02 -1.573131878E+02  5.779639177E+02  2.063112989E-05  0.00000E+00  9.000E+00
#rwgt            1          96   1.1525475892334657E-003        6024     6302495           0
<rwgt>
<wgt id='central'>  0.201259947E+03 </wgt>
<wgt id='sudakovwgt'>  0.177025433E-04 </wgt>
<wgt id='scales0.50.5'>  0.260165309E+03 </wgt>
<wgt id='scales0.51.0'>  0.236462428E+03 </wgt>
<wgt id='scales1.00.5'>  0.221434206E+03 </wgt>
<wgt id='scales1.02.0'>  0.184011025E+03 </wgt>
<wgt id='scales2.01.0'>  0.173443840E+03 </wgt>
<wgt id='scales2.02.0'>  0.158578848E+03 </wgt>
</rwgt>
<scales uborns=' 0.856732877E+03'> </scales>
</event>
<event>
      5  10001  1.56914E+04  1.94251E+01  7.29735E-03  1.67421E-01
      -1    -1     0     0     0   513  0.000000000E+00  0.000000000E+00  3.025787046E+02  3.025787046E+02  0.000000000E+00  0.00000E+00  9.000E+00
       2    -1     0     0   513     0  0.000000000E+00  0.000000000E+00 -1.083677527E+03  1.083677527E+03  0.000000000E+00  0.00000E+00  9.000E+00
       2     1     1     2   512     0  3.963317290E+02  3.636172479E+01 -8.511695415E+02  9.396225853E+02  1.868812365E-05  0.00000E+00  9.000E+00
      -1     1     1     2     0   512 -4.155787795E+02 -3.373768838E+01  8.040905657E+01  4.246287437E+02  8.476442735E-06  0.00000E+00  9.000E+00
      22     1     1     2     0     0  1.924705049E+01 -2.624036404E+00 -1.033833756E+01  2.200490271E+01  2.665600750E-07  0.00000E+00  9.000E+00
#rwgt            1         161   4.9896509765740026E-004        6024     6315759           0
<rwgt>
<wgt id='central'>  0.156913983E+05 </wgt>
<wgt id='sudakovwgt'>  0.356194167E-01 </wgt>
<wgt id='scales0.50.5'>  0.195380539E+05 </wgt>
<wgt id='scales0.51.0'>  0.187327395E+05 </wgt>
<wgt id='scales1.00.5'>  0.163659682E+05 </wgt>
<wgt id='scales1.02.0'>  0.150551620E+05 </wgt>
<wgt id='scales2.01.0'>  0.133422645E+05 </wgt>
<wgt id='scales2.02.0'>  0.128012767E+05 </wgt>
</rwgt>
<scales uborns=' 0.407407778E+03'> </scales>
</event>
<event>
      5  10001  2.39659E+03  3.17749E+01  7.29735E-03  1.51326E-01
       2    -1     0     0   512     0  0.000000000E+00  0.000000000E+00  3.409838827E+03  3.409838827E+03  0.000000000E+00  0.00000E+00  9.000E+00
      21    -1     0     0   511   514  0.000000000E+00  0.000000000E+00 -1.016741557E+02  1.016741557E+02  0.000000000E+00  0.00000E+00  9.000E+00
       2     1     1     2   511     0 -1.631125490E+02  3.322435168E+02  7.024815787E+02  7.940225604E+02  7.629394531E-06  0.00000E+00  9.000E+00
      21     1     1     2   512   514  2.671889610E+02 -4.909526749E+02  2.195389543E+03  2.265427049E+03  3.051757812E-05  0.00000E+00  9.000E+00
      22     1     1     2     0     0 -1.040764120E+02  1.587091582E+02  4.102935494E+02  4.520633729E+02  5.394796609E-06  0.00000E+00  9.000E+00
#rwgt            1         182   1.4853669688607067E-002        6024     6323096           0
<rwgt>
<wgt id='central'>  0.239659411E+04 </wgt>
<wgt id='sudakovwgt'>  0.144455514E-02 </wgt>
<wgt id='scales0.50.5'>  0.314404138E+04 </wgt>
<wgt id='scales0.51.0'>  0.284055704E+04 </wgt>
<wgt id='scales1.00.5'>  0.265264102E+04 </wgt>
<wgt id='scales1.02.0'>  0.217461402E+04 </wgt>
<wgt id='scales2.01.0'>  0.205013333E+04 </wgt>
<wgt id='scales2.02.0'>  0.186024672E+04 </wgt>
</rwgt>
<scales uborns=' 0.559771752E+03'> </scales>
</event>
<event>
      5  10001  3.40831E+02  2.15746E+02  7.29735E-03  1.10463E-01
       2    -1     0     0   512     0  0.000000000E+00  0.000000000E+00  3.514519593E+03  3.514519593E+03  0.000000000E+00  0.00000E+00  9.000E+00
      21    -1     0     0   515   512  0.000000000E+00  0.000000000E+00 -1.983102582E+02  1.983102582E+02  0.000000000E+00  0.00000E+00  9.000E+00
      22     1     1     2     0     0 -7.177750858E+01  5.984635860E+01  3.748903147E+02  3.863629711E+02  7.629394531E-06  0.00000E+00  9.000E+00
      21     1     1     2   515   513  5.890589930E+02 -5.109286528E+02  1.004491237E+03  1.271629361E+03  1.525878906E-05  0.00000E+00  9.000E+00
       2     1     1     2   513     0 -5.172814844E+02  4.510822942E+02  1.936827783E+03  2.054837520E+03  2.157918644E-05  0.00000E+00  9.000E+00
#rwgt            1         182   4.2430293001930366E-002        6024     6325372           0
<rwgt>
<wgt id='central'>  0.340830739E+03 </wgt>
<wgt id='sudakovwgt'>  0.819027490E-03 </wgt>
<wgt id='scales0.50.5'>  0.454068575E+03 </wgt>
<wgt id='scales0.51.0'>  0.401168966E+03 </wgt>
<wgt id='scales1.00.5'>  0.385774224E+03 </wgt>
<wgt id='scales1.02.0'>  0.303206453E+03 </wgt>
<wgt id='scales2.01.0'>  0.293275924E+03 </wgt>
<wgt id='scales2.02.0'>  0.260901011E+03 </wgt>
</rwgt>
<scales uborns=' 0.781838157E+03'> </scales>
</event>
<event>
      5  10001  1.20045E+02  4.02889E+01  7.29735E-03  1.44646E-01
       2    -1     0     0   513     0  0.000000000E+00  0.000000000E+00  1.433690661E+03  1.433690661E+03  0.000000000E+00  0.00000E+00  9.000E+00
      21    -1     0     0   511   512  0.000000000E+00  0.000000000E+00 -9.092520877E+02  9.092520877E+02  0.000000000E+00  0.00000E+00  9.000E+00
       2     1     1     2   511     0  7.190634149E+02  5.810848371E+02  4.717087506E+02  1.037892542E+03  3.281526667E-05  0.00000E+00  9.000E+00
      21     1     1     2   513   512 -7.207197780E+02 -6.213396791E+02 -2.626081260E+02  9.871489366E+02  3.369049403E-05  0.00000E+00  9.000E+00
      22     1     1     2     0     0  1.656363074E+00  4.025484202E+01  3.153379491E+02  3.179012708E+02  3.814697266E-06  0.00000E+00  9.000E+00
#rwgt            1         182   5.0155003934947750E-003        6024     6326081           0
<rwgt>
<wgt id='central'>  0.120045193E+03 </wgt>
<wgt id='sudakovwgt'>  0.478038129E-01 </wgt>
<wgt id='scales0.50.5'>  0.157069930E+03 </wgt>
<wgt id='scales0.51.0'>  0.140796306E+03 </wgt>
<wgt id='scales1.00.5'>  0.133920131E+03 </wgt>
<wgt id='scales1.02.0'>  0.108354494E+03 </wgt>
<wgt id='scales2.01.0'>  0.103606901E+03 </wgt>
<wgt id='scales2.02.0'>  0.935172087E+02 </wgt>
</rwgt>
<scales uborns=' 0.937838548E+03'> </scales>
</event>
<event>
      5  10001  8.22885E+02  7.40231E+01  7.29735E-03  1.30003E-01
       1    -1     0     0   511     0  0.000000000E+00  0.000000000E+00  8.804075595E+02  8.804075595E+02  0.000000000E+00  0.00000E+00  9.000E+00
       2    -1     0     0   514     0  0.000000000E+00  0.000000000E+00 -7.403685609E+02  7.403685609E+02  0.000000000E+00  0.00000E+00  9.000E+00
       1     1     1     2   514     0  5.484846267E+02 -3.647184295E+02  5.094231608E+02  8.326865408E+02  9.344061824E-06  0.00000E+00  9.000E+00
       2     1     1     2   511     0 -4.699592806E+02  3.555876792E+02 -3.896331644E+02  7.064830683E+02  1.206313194E-05  0.00000E+00  9.000E+00
      22     1     1     2     0     0 -7.852534612E+01  9.130750290E+00  2.024900230E+01  8.160651125E+01  1.488923549E-06  0.00000E+00  9.000E+00
#rwgt            1          96   1.0553428240574749E-003        6024     6328406           0
<rwgt>
<wgt id='central'>  0.822884796E+03 </wgt>
<wgt id='sudakovwgt'>  0.653892343E-03 </wgt>
<wgt id='scales0.50.5'>  0.102772291E+04 </wgt>
<wgt id='scales0.51.0'>  0.971555480E+03 </wgt>
<wgt id='scales1.00.5'>  0.870457514E+03 </wgt>
<wgt id='scales1.02.0'>  0.780015465E+03 </wgt>
<wgt id='scales2.01.0'>  0.706225735E+03 </wgt>
<wgt id='scales2.02.0'>  0.669433755E+03 </wgt>
</rwgt>
<scales uborns=' 0.671761347E+03'> </scales>
</event>
<event>
      4  10001  8.98750E+01  8.94427E-01  7.29735E-03  7.45836E-01
       1    -1     0     0   514     0  0.000000000E+00  0.000000000E+00  4.432399789E+02  4.432399789E+02  0.000000000E+00  0.00000E+00  9.000E+00
      21    -1     0     0   512   513  0.000000000E+00  0.000000000E+00 -2.620834024E+03  2.620834024E+03  0.000000000E+00  0.00000E+00  9.000E+00
       1     1     1     2   512     0 -5.877299216E+01 -9.851903184E+02 -4.731223351E+02  1.094485711E+03  1.078959322E-05  0.00000E+00  9.000E+00
      21     1     1     2   514   513  5.877299216E+01  9.851903184E+02 -1.704471710E+03  1.969588291E+03  3.051757812E-05  0.00000E+00  9.000E+00
#rwgt            1         181   4.1325446785367735E-004        6024     6338116           0
<rwgt>
<wgt id='central'>  0.898749563E+02 </wgt>
<wgt id='sudakovwgt'>  0.207230503E+01 </wgt>
<wgt id='scales0.50.5'>  0.124295838E+03 </wgt>
<wgt id='scales0.51.0'>  0.105309141E+03 </wgt>
<wgt id='scales1.00.5'>  0.106079000E+03 </wgt>
<wgt id='scales1.02.0'>  0.771465017E+02 </wgt>
<wgt id='scales2.01.0'>  0.776319804E+02 </wgt>
<wgt id='scales2.02.0'>  0.666373931E+02 </wgt>
</rwgt>
<scales uborns=' 0.986941857E+03'> </scales>
</event>
<event>
      4  10001  3.31072E+02  8.94427E-01  7.29735E-03  7.52496E-01
       2    -1     0     0   512     0  0.000000000E+00  0.000000000E+00  2.302482162E+03  2.302482162E+03  0.000000000E+00  0.00000E+00  9.000E+00
      21    -1     0     0   511   515  0.000000000E+00  0.000000000E+00 -3.386688107E+02  3.386688107E+02  0.000000000E+00  0.00000E+00  9.000E+00
       2     1     1     2   511     0 -5.409900503E+02  5.698928351E+02  1.584435712E+03  1.768582654E+03  3.051757812E-05  0.00000E+00  9.000E+00
      21     1     1     2   512   515  5.409900503E+02 -5.698928351E+02  3.793776395E+02  8.725683190E+02  1.206313194E-05  0.00000E+00  9.000E+00
#rwgt            1         182   1.1656097425615145E-002        6024     6339339           0
<rwgt>
<wgt id='central'>  0.331072422E+03 </wgt>
<wgt id='sudakovwgt'>  0.676170913E+02 </wgt>
<wgt id='scales0.50.5'>  0.434966078E+03 </wgt>
<wgt id='scales0.51.0'>  0.389643256E+03 </wgt>
<wgt id='scales1.00.5'>  0.369581886E+03 </wgt>
<wgt id='scales1.02.0'>  0.298492967E+03 </wgt>
<wgt id='scales2.01.0'>  0.284902745E+03 </wgt>
<wgt id='scales2.02.0'>  0.256866983E+03 </wgt>
</rwgt>
<scales uborns=' 0.785778644E+03'> </scales>
</event>
<event>
      5  10001  1.76399E+02  3.97615E+01  7.29735E-03  1.45001E-01
       2    -1     0     0   512     0  0.000000000E+00  0.000000000E+00  1.846155280E+03  1.846155280E+03  0.000000000E+00  0.00000E+00  9.000E+00
      21    -1     0     0   514   512  0.000000000E+00  0.000000000E+00 -5.360330939E+02  5.360330939E+02  0.000000000E+00  0.00000E+00  9.000E+00
       2     1     1     2   513     0 -5.173601784E+02 -4.107290719E+02  9.636132424E+02  1.168293801E+03  1.078959322E-05  0.00000E+00  9.000E+00
      21     1     1     2   514   513  6.976670543E+02  5.289524000E+02  9.200397961E+01  8.803378286E+02  9.910874219E-06  0.00000E+00  9.000E+00
      22     1     1     2     0     0 -1.803068759E+02 -1.182233281E+02  2.545049638E+02  3.335567439E+02  5.394796609E-06  0.00000E+00  9.000E+00
#rwgt            1         182   9.9910793073735502E-003        6024     6359264           0
<rwgt>
<wgt id='central'>  0.176399235E+03 </wgt>
<wgt id='sudakovwgt'>  0.718759691E-03 </wgt>
<wgt id='scales0.50.5'>  0.231655965E+03 </wgt>
<wgt id='scales0.51.0'>  0.207160296E+03 </wgt>
<wgt id='scales1.00.5'>  0.197257300E+03 </wgt>
<wgt id='scales1.02.0'>  0.158837133E+03 </wgt>
<wgt id='scales2.01.0'>  0.152076594E+03 </wgt>
<wgt id='scales2.02.0'>  0.136936208E+03 </wgt>
</rwgt>
<scales uborns=' 0.876671526E+03'> </scales>
</event>
</LesHouchesEvents>
